# vtk DataFile Version 5.1
Data.vtk
ASCII
DATASET UNSTRUCTURED_GRID
 
POINTS 2000 float
    5.60  -12.51   -0.45
   -6.48  -10.27    0.78
   -0.90  -14.47    3.29
   -1.21  -12.90   -2.26
   -8.95   -9.37    6.96
   -3.40  -10.52   -8.82
    0.97  -11.54   -4.50
   -8.32  -11.74   -8.64
   -4.75   -9.98   -1.60
   -7.07  -11.51   -0.41
  -11.21   -9.03   -3.78
   -9.22   -8.02   -8.49
    1.18  -13.69   -2.95
   -1.05  -12.38    1.61
   -7.10  -12.64   -1.69
   -1.82   -9.95    0.69
   -6.74  -10.40    4.22
    3.10  -13.38    7.90
    4.65  -12.59    7.77
   -5.54  -13.40   -7.38
   -6.21  -13.10   -1.67
    4.08  -13.92    7.25
   -1.09  -10.16   -9.43
    0.80  -14.48   -9.49
    0.52  -13.14   -1.14
  -13.18   -5.69   -3.30
   -7.39  -12.36    6.46
   -0.67  -12.83    7.92
  -11.11   -7.44   -0.50
  -12.02   -5.51    9.10
   -0.98  -14.47   -7.11
   -8.01   -8.26   -0.21
    0.03  -11.08    7.62
   -3.60  -10.65   -1.17
   -7.00  -12.67   -6.54
    3.76  -14.00    8.66
   -5.96   -8.99    4.44
  -10.87   -9.59    6.00
  -10.43   -8.95    0.62
   -2.25  -12.14    1.65
    3.62  -11.53   -1.29
   -0.59  -14.49   -2.42
  -11.51   -6.51   -5.30
   -0.71  -13.60    0.57
   -9.53   -8.25   -7.45
    2.80  -11.51    1.81
    3.53  -11.93    5.12
   -1.07  -13.56   -6.50
   -3.78  -10.87    1.71
    0.01  -14.45   -7.94
    4.37  -13.20   -7.76
   -7.55  -10.05    9.49
   -8.08   -9.85    6.93
   -7.05  -11.14    2.87
  -11.66   -6.11    3.55
   -4.62  -10.59    0.50
   -1.66   -9.92   -3.04
   -9.69  -10.78    2.27
   -8.27  -11.85    1.28
   -3.83  -10.09   -7.26
   -9.53  -10.92   -1.54
  -12.76   -3.88   -9.25
   -0.73  -12.92    6.93
    2.28  -14.32    2.55
    3.94  -12.35    0.08
   -5.96  -12.20    0.67
    1.79  -13.45   -7.38
   -7.18  -10.17    2.65
    6.23  -13.09   -5.98
   -3.76  -11.53   -1.62
  -10.27   -8.87    4.67
   -4.10  -13.91   -9.50
    2.49  -12.76   -5.76
   -9.83   -7.57    5.50
   -5.54   -8.92    3.50
   -7.57  -12.37   -8.44
   -2.84  -10.32    6.33
    4.10  -13.90   -6.04
   -5.72  -11.45    2.89
   -5.22   -9.19    0.04
   -1.76  -13.59    9.48
   -3.73   -9.60    4.58
   -0.66  -13.50   -3.46
   -0.27  -10.62   -4.97
   -1.46  -13.60   -8.54
   -2.63  -11.94   -5.40
   -3.19  -14.13    2.23
   -3.83   -9.69   -3.69
  -10.96   -8.33   -0.00
   -4.22  -11.32    5.21
   -2.19  -11.63    0.07
   -1.68  -12.64   -9.49
  -11.12   -8.26   -2.69
  -12.64   -5.08    7.23
    3.12  -12.65    3.57
   -7.96   -8.02   -1.32
   -7.77  -11.83    2.98
   -7.27  -11.24    5.53
    4.13  -13.17   -3.75
  -11.35   -8.30   -1.60
    3.00  -14.19    1.86
   -1.34  -10.76   -2.11
  -11.73   -6.77    1.18
   -8.40   -8.47    5.51
  -10.30  -10.03    1.57
   -1.26  -10.71   -4.36
    4.58  -13.00    4.37
   -9.47   -8.72   -3.22
   -5.17  -13.55    8.56
   -5.31  -13.45    3.75
  -12.02   -6.48    7.64
   -6.32  -12.13   -2.08
    4.16  -11.38   -2.89
    1.21  -12.84   -6.85
    4.96  -12.57    3.24
   -1.74  -10.76   -7.72
   -8.01  -12.05    0.32
  -10.53   -6.72   -6.00
    2.89  -14.21    6.17
  -11.03   -6.76    8.94
    4.40  -12.85    9.00
   -4.89   -9.12    8.99
   -5.47  -12.47    8.47
   -6.52   -9.51    3.80
   -8.68   -8.97    0.38
   -0.46  -11.27   -2.32
    4.77  -13.69   -4.32
   -3.58  -14.05    3.15
    1.83  -13.58   -9.50
   -1.12  -13.48   -9.50
   -3.82  -12.04   -3.79
  -11.03   -7.24    2.47
    0.94  -11.09   -0.83
   -6.83   -9.40    0.37
   -6.22  -10.38   -6.32
   -0.12  -13.61    8.46
   -1.10  -14.46   -8.91
    4.66  -13.73   -6.85
   -2.61  -10.70    7.22
    5.10  -13.57    0.79
   -2.36  -10.98   -1.51
   -3.03  -14.18    5.38
   -7.13  -10.98   -6.28
  -13.28   -4.04    8.23
  -10.72   -7.46    4.35
   -6.11  -12.09    9.46
   -6.31  -11.51    5.68
    2.79  -13.26   -9.50
    0.74  -13.57   -7.50
   -5.86  -11.85   -9.46
   -3.33  -10.95    4.44
   -9.98   -8.12   -1.19
   -9.65   -8.09    4.66
   -6.90   -9.45   -2.81
   -1.91  -14.17   -9.50
   -7.06  -12.34    1.74
   -6.68  -12.05    2.62
   -1.41  -10.14    4.05
   -7.13  -10.03    6.65
    5.52  -12.01    4.65
  -11.14   -7.43   -5.49
   -0.83  -10.86    3.60
    1.69  -14.40   -8.95
    4.96  -12.01    2.41
   -2.65  -10.63   -6.32
   -9.20   -8.75    2.01
   -4.59  -13.75   -3.90
   -2.57  -13.87   -7.99
    1.25  -11.59   -1.88
   -8.52   -8.55   -6.86
    4.69  -12.83    1.32
   -7.78   -9.17   -5.26
   -1.20  -12.13    8.40
   -8.43   -8.42   -4.90
   -4.81  -12.44    5.99
   -6.34   -8.59    0.74
   -4.44  -10.87    9.42
   -9.09   -7.77    7.97
  -10.26   -8.09   -3.45
   -2.71  -13.47   -0.79
  -12.10   -7.99   -9.24
   -0.54  -10.65    1.28
    5.81  -12.89    0.95
   -5.17  -10.05   -6.28
   -4.48  -11.20    8.32
    2.08  -13.07   -3.91
  -11.75   -8.41   -5.92
    0.94  -14.46   -8.28
  -11.70   -8.54    7.09
   -2.42  -14.30   -3.38
   -7.23  -11.65   -2.07
    1.29  -13.78    5.79
   -2.58  -13.48    8.86
   -9.04   -8.31   -9.45
   -1.06  -11.42   -3.15
    2.02  -12.01    6.44
   -6.91   -8.44   -5.48
    4.78  -13.08   -8.71
   -2.04  -14.36   -1.20
   -3.98  -11.39   -0.56
   -4.24  -10.50    4.38
    0.47  -12.20    9.46
    2.14  -12.39   -6.71
   -4.09  -13.48   -1.73
    2.83  -13.58    3.34
   -8.50  -10.55   -9.50
    0.49  -10.90   -3.89
   -8.93   -7.91    6.15
   -3.66   -9.90   -5.35
   -8.16   -9.91   -8.36
   -7.94   -9.64    5.10
    0.08  -13.66   -8.85
   -5.31   -9.54    1.91
    2.34  -13.35   -6.55
   -4.49   -9.35   -5.27
   -2.73  -11.27    0.83
   -5.66  -10.10    0.24
    0.90  -14.47    9.41
   -6.96  -10.65   -7.99
   -9.11  -11.28   -5.06
   -5.14  -10.03    4.51
   -2.11  -11.36    4.88
  -13.39   -5.55   -6.97
   -6.63  -11.61   -2.88
    0.53  -13.20    9.42
   -1.19  -12.77    9.46
  -12.68   -5.24   -9.21
    3.13  -13.15   -3.73
   -8.18   -8.73    9.25
   -2.91  -11.39   -8.71
   -4.50  -13.79   -5.89
    1.36  -12.60    4.62
   -4.24  -11.90   -7.19
   -6.13  -10.83    6.91
  -11.43   -8.91   -8.72
   -7.56  -12.37   -3.29
  -11.81   -6.79   -0.04
   -2.43   -9.97    1.59
    2.04  -12.98    3.12
   -8.79  -10.28   -7.64
  -11.29   -9.03    5.28
    5.72  -13.33    4.99
  -10.62   -8.45   -9.44
   -4.19  -11.61   -8.68
    0.12  -10.55    3.56
  -11.47   -8.70    1.10
   -5.75   -9.36   -7.82
   -3.10  -10.08   -0.51
   -1.82  -12.02    9.24
   -5.04  -11.67    9.50
   -4.74  -12.84   -3.52
   -6.53   -8.50   -9.40
   -6.31   -9.74   -7.09
   -2.24  -14.33    7.70
    6.84  -12.79    6.90
    0.67  -12.93    3.18
   -0.98  -11.91   -9.50
    4.80  -13.66    5.20
  -12.39   -6.96   -7.17
   -2.33  -11.93   -0.87
   -2.60  -10.15   -8.25
   -2.18  -11.34   -4.54
  -12.06   -7.15    6.90
   -5.22   -9.21    5.09
  -11.96   -8.19   -8.25
    1.99  -14.36   -5.54
    4.71  -13.71    2.40
   -8.64   -8.34    3.05
   -5.23  -11.77   -7.23
   -7.13   -9.00   -7.24
   -7.90  -10.93   -0.48
   -3.90  -13.02    1.37
   -3.76  -13.16   -8.51
    5.61  -12.66   -6.63
    0.98  -11.98   -6.39
   -7.83  -11.01    9.50
    1.60  -12.28    3.68
    1.81  -11.22    5.80
    1.50  -10.97   -5.61
   -6.80  -12.78   -0.73
   -4.32  -12.75    6.80
    1.91  -14.37    7.98
    0.11  -11.90   -4.10
   -0.79  -11.01    9.33
   -9.43   -9.87   -1.93
   -4.70   -9.48    3.80
   -2.39  -13.57   -1.73
   -2.56  -11.70    7.22
   -4.19   -9.70   -6.41
    6.15  -13.13    2.58
   -4.27  -13.85    2.24
   -2.84   -9.78    3.51
   -9.57   -8.83   -1.75
   -0.29  -11.12   -5.92
   -4.33  -10.37    7.48
   -3.46  -12.15   -0.17
    4.11  -13.91   -8.42
   -5.50  -10.21    5.55
    1.04  -13.63    6.76
   -3.43  -14.09   -7.49
    3.54  -13.79   -1.67
    5.46  -12.70    5.73
   -5.85  -12.42    3.05
  -12.48   -6.15   -0.43
    4.36  -11.41   -0.25
    3.62  -13.04    7.08
   -3.69  -10.44    5.22
   -3.40  -14.10   -8.50
   -6.72   -9.54   -1.41
  -10.26   -6.85    7.20
   -1.87  -11.18   -6.00
   -6.08  -10.95    4.89
   -6.56   -9.03   -0.57
   -9.53   -9.28   -0.72
    1.67  -11.68   -7.24
    3.18  -12.05   -5.57
    1.39  -12.64   -9.50
   -0.13  -10.71   -0.54
   -8.83  -11.50    5.67
  -10.46   -8.28   -7.05
   -2.49  -13.36   -9.50
   -7.75   -8.48   -4.17
   -3.43  -14.09   -3.29
   -1.64  -14.14   -4.03
   -9.17   -7.59   -3.24
   -4.74   -9.82    1.13
  -12.84   -6.73    4.07
    4.86  -12.17    6.33
   -6.67  -11.70   -6.82
    1.69  -13.57    1.85
   -5.17   -9.95   -0.62
    1.03  -13.68   -1.82
   -1.89  -14.37    3.40
   -5.55  -12.44   -3.94
   -7.18  -11.70    8.52
  -10.42   -9.80   -3.97
   -6.49   -9.00    6.64
   -7.95  -12.02    5.71
   -7.67  -12.31   -0.58
    0.21  -11.80   -1.69
   -4.96   -9.22   -2.21
   -3.41  -12.22   -8.51
    3.88  -13.97    5.92
   -8.44  -10.73    6.18
   -3.88  -11.12   -9.50
   -7.45   -9.88   -7.58
   -2.51  -10.03    2.61
   -7.69   -9.67   -1.72
   -2.59  -12.74   -4.80
  -12.16   -7.84    7.63
   -9.36  -10.10   -4.37
   -4.25  -10.41   -8.27
   -9.85  -10.63   -5.25
  -12.14   -6.66    4.84
   -1.03  -12.10   -5.27
   -7.23   -8.82    3.90
    3.35  -12.36   -4.51
   -2.76  -14.23    9.49
   -3.83   -9.93    3.56
  -10.50   -7.70   -6.21
   -3.76  -14.00    9.44
   -4.25  -13.08    8.75
   -2.33  -10.26   -4.10
   -1.96  -10.91    7.96
    2.62  -14.26    4.32
  -11.67   -7.89    1.65
  -11.47   -6.81    6.17
   -5.04  -13.59   -9.46
   -0.81  -10.48   -2.91
   -2.80   -9.84    5.45
    0.69  -13.61   -5.71
   -0.82  -10.99   -7.34
    5.79  -11.82   -6.06
   -9.23   -8.47    9.49
   -8.41   -8.75   -2.88
   -7.99  -12.08    3.97
    5.82  -12.75    8.23
   -4.39   -9.75    0.00
   -8.31   -9.83   -4.41
   -9.01   -7.06   -7.95
   -3.49  -13.11   -9.50
   -6.81   -8.77   -2.08
   -8.23  -11.03   -5.50
   -2.34  -11.66    6.07
  -13.15   -4.58   -7.09
   -5.07   -9.48   -8.58
   -7.05   -8.41   -1.18
    2.20  -12.63    2.10
  -10.41  -10.00   -7.39
    1.06  -10.97   -6.88
   -3.98  -12.11    9.43
    4.21  -12.93    5.56
   -8.31   -7.66   -7.51
    3.20  -11.79    6.77
   -8.48   -7.33    5.41
    2.28  -13.11    4.52
[...]
POINT_DATA 2000
SCALARS radius float
LOOKUP_TABLE default
  0.500000000000000     
  0.500000000000000     
  0.500000000000000     
  0.500000000000000     
  0.500000000000000     
  0.500000000000000     
  0.500000000000000     
  0.500000000000000     
  0.500000000000000     
  0.500000000000000     
  0.500000000000000     
  0.500000000000000     
  0.500000000000000     
  0.500000000000000     
  0.500000000000000     
  0.500000000000000     
  0.500000000000000     
  0.500000000000000     
  0.500000000000000     
  0.500000000000000     
  0.500000000000000     
  0.500000000000000     
  0.500000000000000     
  0.500000000000000     
  0.500000000000000     
  0.500000000000000     
  0.500000000000000     
  0.500000000000000     
  0.500000000000000     
  0.500000000000000     
  0.500000000000000     
  0.500000000000000     
  0.500000000000000     
  0.500000000000000     
  0.500000000000000     
  0.500000000000000     
  0.500000000000000     
  0.500000000000000     
  0.500000000000000     
  0.500000000000000     
  0.500000000000000     
  0.500000000000000     
  0.500000000000000     
  0.500000000000000     
  0.500000000000000     
  0.500000000000000     
  0.500000000000000     
  0.500000000000000     
  0.500000000000000     
  0.500000000000000     
  0.500000000000000     
  0.500000000000000     
  0.500000000000000     
  0.500000000000000     
  0.500000000000000     
  0.500000000000000     
  0.500000000000000     
  0.500000000000000     
  0.500000000000000     
  0.500000000000000     
  0.500000000000000     
  0.500000000000000     
  0.500000000000000     
  0.500000000000000     
  0.500000000000000     
  0.500000000000000     
  0.500000000000000     
  0.500000000000000     
  0.500000000000000     
  0.500000000000000     
  0.500000000000000     
  0.500000000000000     
  0.500000000000000     
  0.500000000000000     
  0.500000000000000     
  0.500000000000000     
  0.500000000000000     
  0.500000000000000     
  0.500000000000000     
  0.500000000000000     
  0.500000000000000     
  0.500000000000000     
  0.500000000000000     
  0.500000000000000     
  0.500000000000000     
  0.500000000000000     
  0.500000000000000     
  0.500000000000000     
  0.500000000000000     
  0.500000000000000     
  0.500000000000000     
  0.500000000000000     
  0.500000000000000     
  0.500000000000000     
  0.500000000000000     
  0.500000000000000     
  0.500000000000000     
  0.500000000000000     
  0.500000000000000     
  0.500000000000000     
  0.500000000000000     
  0.500000000000000     
  0.500000000000000     
  0.500000000000000     
  0.500000000000000     
  0.500000000000000     
  0.500000000000000     
  0.500000000000000     
  0.500000000000000     
  0.500000000000000     
  0.500000000000000     
  0.500000000000000     
  0.500000000000000     
  0.500000000000000     
  0.500000000000000     
  0.500000000000000     
  0.500000000000000     
  0.500000000000000     
  0.500000000000000     
  0.500000000000000     
  0.500000000000000     
  0.500000000000000     
  0.500000000000000     
  0.500000000000000     
  0.500000000000000     
  0.500000000000000     
  0.500000000000000     
  0.500000000000000     
  0.500000000000000     
  0.500000000000000     
  0.500000000000000     
  0.500000000000000     
  0.500000000000000     
  0.500000000000000     
  0.500000000000000     
  0.500000000000000     
  0.500000000000000     
  0.500000000000000     
  0.500000000000000     
  0.500000000000000     
  0.500000000000000     
  0.500000000000000     
  0.500000000000000     
  0.500000000000000     
  0.500000000000000     
  0.500000000000000     
  0.500000000000000     
  0.500000000000000     
  0.500000000000000     
  0.500000000000000     
  0.500000000000000     
  0.500000000000000     
  0.500000000000000     
  0.500000000000000     
  0.500000000000000     
  0.500000000000000     
  0.500000000000000     
  0.500000000000000     
  0.500000000000000     
  0.500000000000000     
  0.500000000000000     
  0.500000000000000     
  0.500000000000000     
  0.500000000000000     
  0.500000000000000     
  0.500000000000000     
  0.500000000000000     
  0.500000000000000     
  0.500000000000000     
  0.500000000000000     
  0.500000000000000     
  0.500000000000000     
  0.500000000000000     
  0.500000000000000     
  0.500000000000000     
  0.500000000000000     
  0.500000000000000     
  0.500000000000000     
  0.500000000000000     
  0.500000000000000     
  0.500000000000000     
  0.500000000000000     
  0.500000000000000     
  0.500000000000000     
  0.500000000000000     
  0.500000000000000     
  0.500000000000000     
  0.500000000000000     
  0.500000000000000     
  0.500000000000000     
  0.500000000000000     
  0.500000000000000     
  0.500000000000000     
  0.500000000000000     
  0.500000000000000     
  0.500000000000000     
  0.500000000000000     
  0.500000000000000     
  0.500000000000000     
  0.500000000000000     
  0.500000000000000     
  0.500000000000000     
  0.500000000000000     
  0.500000000000000     
  0.500000000000000     
  0.500000000000000     
  0.500000000000000     
  0.500000000000000     
  0.500000000000000     
  0.500000000000000     
  0.500000000000000     
  0.500000000000000     
  0.500000000000000     
  0.500000000000000     
  0.500000000000000     
  0.500000000000000     
  0.500000000000000     
  0.500000000000000     
  0.500000000000000     
  0.500000000000000     
  0.500000000000000     
  0.500000000000000     
  0.500000000000000     
  0.500000000000000     
  0.500000000000000     
  0.500000000000000     
  0.500000000000000     
  0.500000000000000     
  0.500000000000000     
  0.500000000000000     
  0.500000000000000     
  0.500000000000000     
  0.500000000000000     
  0.500000000000000     
  0.500000000000000     
  0.500000000000000     
  0.500000000000000     
  0.500000000000000     
  0.500000000000000     
  0.500000000000000     
  0.500000000000000     
  0.500000000000000     
  0.500000000000000     
  0.500000000000000     
  0.500000000000000     
  0.500000000000000     
  0.500000000000000     
  0.500000000000000     
  0.500000000000000     
  0.500000000000000     
  0.500000000000000     
  0.500000000000000     
  0.500000000000000     
  0.500000000000000     
  0.500000000000000     
  0.500000000000000     
  0.500000000000000     
  0.500000000000000     
  0.500000000000000     
  0.500000000000000     
  0.500000000000000     
  0.500000000000000     
  0.500000000000000     
  0.500000000000000     
  0.500000000000000     
  0.500000000000000     
  0.500000000000000     
  0.500000000000000     
  0.500000000000000     
  0.500000000000000     
  0.500000000000000     
  0.500000000000000     
  0.500000000000000     
  0.500000000000000     
  0.500000000000000     
  0.500000000000000     
  0.500000000000000     
  0.500000000000000     
  0.500000000000000     
  0.500000000000000     
  0.500000000000000     
  0.500000000000000     
  0.500000000000000     
  0.500000000000000     
  0.500000000000000     
  0.500000000000000     
  0.500000000000000     
  0.500000000000000     
  0.500000000000000     
  0.500000000000000     
  0.500000000000000     
  0.500000000000000     
  0.500000000000000     
  0.500000000000000     
  0.500000000000000     
  0.500000000000000     
  0.500000000000000     
  0.500000000000000     
  0.500000000000000     
  0.500000000000000     
  0.500000000000000     
  0.500000000000000     
  0.500000000000000     
  0.500000000000000     
  0.500000000000000     
  0.500000000000000     
  0.500000000000000     
  0.500000000000000     
  0.500000000000000     
  0.500000000000000     
  0.500000000000000     
  0.500000000000000     
  0.500000000000000     
  0.500000000000000     
  0.500000000000000     
  0.500000000000000     
  0.500000000000000     
  0.500000000000000     
  0.500000000000000     
  0.500000000000000     
  0.500000000000000     
  0.500000000000000     
  0.500000000000000     
  0.500000000000000     
  0.500000000000000     
  0.500000000000000     
  0.500000000000000     
  0.500000000000000     
  0.500000000000000     
  0.500000000000000     
  0.500000000000000     
  0.500000000000000     
  0.500000000000000     
  0.500000000000000     
  0.500000000000000     
  0.500000000000000     
  0.500000000000000     
  0.500000000000000     
  0.500000000000000     
  0.500000000000000     
  0.500000000000000     
  0.500000000000000     
  0.500000000000000     
  0.500000000000000     
  0.500000000000000     
  0.500000000000000     
  0.500000000000000     
  0.500000000000000     
  0.500000000000000     
  0.500000000000000     
  0.500000000000000     
  0.500000000000000     
  0.500000000000000     
  0.500000000000000     
  0.500000000000000     
  0.500000000000000     
  0.500000000000000     
  0.500000000000000     
  0.500000000000000     
  0.500000000000000     
  0.500000000000000     
  0.500000000000000     
  0.500000000000000     
  0.500000000000000     
  0.500000000000000     
  0.500000000000000     
  0.500000000000000     
  0.500000000000000     
  0.500000000000000     
  0.500000000000000     
  0.500000000000000     
  0.500000000000000     
  0.500000000000000     
  0.500000000000000     
  0.500000000000000     
  0.500000000000000     
  0.500000000000000     
  0.500000000000000     
  0.500000000000000     
  0.500000000000000     
  0.500000000000000     
  0.500000000000000     
  0.500000000000000     
  0.500000000000000     
  0.500000000000000     
  0.500000000000000     
  0.500000000000000     
  0.500000000000000     
  0.500000000000000     
  0.500000000000000     
  0.500000000000000     
  0.500000000000000     
  0.500000000000000     
  0.500000000000000     
  0.500000000000000     
  0.500000000000000     
  0.500000000000000     
  0.500000000000000     
  0.500000000000000     
  0.500000000000000     
  0.500000000000000     
  0.500000000000000     
  0.500000000000000     
  0.500000000000000     
  0.500000000000000     
  0.500000000000000     
  0.500000000000000     
  0.500000000000000     
  0.500000000000000     
  0.500000000000000     
  0.500000000000000     
  0.500000000000000     
  0.500000000000000     
  0.500000000000000     
  0.500000000000000     
  0.500000000000000     
  0.500000000000000     
  0.500000000000000     
  0.500000000000000     
  0.500000000000000     
  0.500000000000000     
  0.500000000000000     
  0.500000000000000     
  0.500000000000000     
  0.500000000000000     
  0.500000000000000     
  0.500000000000000     
  0.500000000000000     
  0.500000000000000     
  0.500000000000000     
  0.500000000000000     
  0.500000000000000     
  0.500000000000000     
  0.500000000000000     
  0.500000000000000     
  0.500000000000000     
  0.500000000000000     
  0.500000000000000     
  0.500000000000000     
  0.500000000000000     
  0.500000000000000     
  0.500000000000000     
  0.500000000000000     
  0.500000000000000     
  0.500000000000000     
  0.500000000000000     
  0.500000000000000     
  0.500000000000000     
  0.500000000000000     
  0.500000000000000     
  0.500000000000000     
  0.500000000000000     
  0.500000000000000     
  0.500000000000000     
  0.500000000000000     
  0.500000000000000     
  0.500000000000000     
  0.500000000000000     
  0.500000000000000     
  0.500000000000000     
  0.500000000000000     
  0.500000000000000     
  0.500000000000000     
  0.500000000000000     
  0.500000000000000     
  0.500000000000000     
  0.500000000000000     
  0.500000000000000     
  0.500000000000000     
  0.500000000000000     
  0.500000000000000     
  0.500000000000000     
  0.500000000000000     
  0.500000000000000     
  0.500000000000000     
  0.500000000000000     
  0.500000000000000     
  0.500000000000000     
  0.500000000000000     
  0.500000000000000     
  0.500000000000000     
  0.500000000000000     
  0.500000000000000     
  0.500000000000000     
  0.500000000000000     
  0.500000000000000     
  0.500000000000000     
  0.500000000000000     
  0.500000000000000     
  0.500000000000000     
  0.500000000000000     
  0.500000000000000     
  0.500000000000000     
  0.500000000000000     
  0.500000000000000     
  0.500000000000000     
  0.500000000000000     
  0.500000000000000     
  0.500000000000000     
  0.500000000000000     
  0.500000000000000     
  0.500000000000000     
  0.500000000000000     
  0.500000000000000     
  0.500000000000000     
  0.500000000000000     
  0.500000000000000     
  0.500000000000000     
  0.500000000000000     
  0.500000000000000     
  0.500000000000000     
  0.500000000000000     
  0.500000000000000     
  0.500000000000000     
  0.500000000000000     
  0.500000000000000     
  0.500000000000000     
  0.500000000000000     
  0.500000000000000     
  0.500000000000000     
  0.500000000000000     
  0.500000000000000     
  0.500000000000000     
  0.500000000000000     
  0.500000000000000     
  0.500000000000000     
  0.500000000000000     
  0.500000000000000     
  0.500000000000000     
  0.500000000000000     
  0.500000000000000     
  0.500000000000000     
  0.500000000000000     
  0.500000000000000     
  0.500000000000000     
  0.500000000000000     
  0.500000000000000     
  0.500000000000000     
  0.500000000000000     
  0.500000000000000     
  0.500000000000000     
  0.500000000000000     
  0.500000000000000     
  0.500000000000000     
  0.500000000000000     
  0.500000000000000     
  0.500000000000000     
  0.500000000000000     
  0.500000000000000     
  0.500000000000000     
  0.500000000000000     
  0.500000000000000     
  0.500000000000000     
  0.500000000000000     
  0.500000000000000     
  0.500000000000000     
  0.500000000000000     
  0.500000000000000     
  0.500000000000000     
  0.500000000000000     
  0.500000000000000     
  0.500000000000000     
  0.500000000000000     
  0.500000000000000     
  0.500000000000000     
  0.500000000000000     
  0.500000000000000     
  0.500000000000000     
  0.500000000000000     
  0.500000000000000     
  0.500000000000000     
  0.500000000000000     
  0.500000000000000     
  0.500000000000000     
  0.500000000000000     
  0.500000000000000     
  0.500000000000000     
  0.500000000000000     
  0.500000000000000     
  0.500000000000000     
  0.500000000000000     
  0.500000000000000     
  0.500000000000000     
  0.500000000000000     
  0.500000000000000     
  0.500000000000000     
  0.500000000000000     
  0.500000000000000     
  0.500000000000000     
  0.500000000000000     
  0.500000000000000     
  0.500000000000000     
  0.500000000000000     
  0.500000000000000     
  0.500000000000000     
  0.500000000000000     
  0.500000000000000     
  0.500000000000000     
  0.500000000000000     
  0.500000000000000     
  0.500000000000000     
  0.500000000000000     
  0.500000000000000     
  0.500000000000000     
  0.500000000000000     
  0.500000000000000     
  0.500000000000000     
  0.500000000000000     
  0.500000000000000     
  0.500000000000000     
  0.500000000000000     
  0.500000000000000     
  0.500000000000000     
  0.500000000000000     
  0.500000000000000     
  0.500000000000000     
  0.500000000000000     
  0.500000000000000     
  0.500000000000000     
  0.500000000000000     
  0.500000000000000     
  0.500000000000000     
  0.500000000000000     
  0.500000000000000     
  0.500000000000000     
  0.500000000000000     
  0.500000000000000     
  0.500000000000000     
  0.500000000000000     
  0.500000000000000     
  0.500000000000000     
  0.500000000000000     
  0.500000000000000     
  0.500000000000000     
  0.500000000000000     
  0.500000000000000     
  0.500000000000000     
  0.500000000000000     
  0.500000000000000     
  0.500000000000000     
  0.500000000000000     
  0.500000000000000     
  0.500000000000000     
  0.500000000000000     
  0.500000000000000     
  0.500000000000000     
  0.500000000000000     
  0.500000000000000     
  0.500000000000000     
  0.500000000000000     
  0.500000000000000     
  0.500000000000000     
  0.500000000000000     
  0.500000000000000     
  0.500000000000000     
  0.500000000000000     
  0.500000000000000     
  0.500000000000000     
  0.500000000000000     
  0.500000000000000     
  0.500000000000000     
  0.500000000000000     
  0.500000000000000     
  0.500000000000000     
  0.500000000000000     
  0.500000000000000     
  0.500000000000000     
  0.500000000000000     
  0.500000000000000     
  0.500000000000000     
  0.500000000000000     
  0.500000000000000     
  0.500000000000000     
  0.500000000000000     
  0.500000000000000     
  0.500000000000000     
  0.500000000000000     
  0.500000000000000     
  0.500000000000000     
  0.500000000000000     
  0.500000000000000     
  0.500000000000000     
  0.500000000000000     
  0.500000000000000     
  0.500000000000000     
  0.500000000000000     
  0.500000000000000     
  0.500000000000000     
  0.500000000000000     
  0.500000000000000     
  0.500000000000000     
  0.500000000000000     
  0.500000000000000     
  0.500000000000000     
  0.500000000000000     
  0.500000000000000     
  0.500000000000000     
  0.500000000000000     
  0.500000000000000     
  0.500000000000000     
  0.500000000000000     
  0.500000000000000     
  0.500000000000000     
  0.500000000000000     
  0.500000000000000     
  0.500000000000000     
  0.500000000000000     
  0.500000000000000     
  0.500000000000000     
  0.500000000000000     
  0.500000000000000     
  0.500000000000000     
  0.500000000000000     
  0.500000000000000     
  0.500000000000000     
  0.500000000000000     
  0.500000000000000     
  0.500000000000000     
  0.500000000000000     
  0.500000000000000     
  0.500000000000000     
  0.500000000000000     
  0.500000000000000     
  0.500000000000000     
  0.500000000000000     
  0.500000000000000     
  0.500000000000000     
  0.500000000000000     
  0.500000000000000     
  0.500000000000000     
  0.500000000000000     
  0.500000000000000     
  0.500000000000000     
  0.500000000000000     
  0.500000000000000     
  0.500000000000000     
  0.500000000000000     
  0.500000000000000     
  0.500000000000000     
  0.500000000000000     
  0.500000000000000     
  0.500000000000000     
  0.500000000000000     
  0.500000000000000     
  0.500000000000000     
  0.500000000000000     
  0.500000000000000     
  0.500000000000000     
  0.500000000000000     
  0.500000000000000     
  0.500000000000000     
  0.500000000000000     
  0.500000000000000     
  0.500000000000000     
  0.500000000000000     
  0.500000000000000     
  0.500000000000000     
  0.500000000000000     
  0.500000000000000     
  0.500000000000000     
  0.500000000000000     
  0.500000000000000     
  0.500000000000000     
  0.500000000000000     
  0.500000000000000     
  0.500000000000000     
  0.500000000000000     
  0.500000000000000     
  0.500000000000000     
  0.500000000000000     
  0.500000000000000     
  0.500000000000000     
  0.500000000000000     
  0.500000000000000     
  0.500000000000000     
  0.500000000000000     
  0.500000000000000     
  0.500000000000000     
  0.500000000000000     
  0.500000000000000     
  0.500000000000000     
  0.500000000000000     
  0.500000000000000     
  0.500000000000000     
  0.500000000000000     
  0.500000000000000     
  0.500000000000000     
  0.500000000000000     
  0.500000000000000     
  0.500000000000000     
  0.500000000000000     
  0.500000000000000     
  0.500000000000000     
  0.500000000000000     
  0.500000000000000     
  0.500000000000000     
  0.500000000000000     