# vtk DataFile Version 5.1
Data.vtk
ASCII
DATASET UNSTRUCTURED_GRID
 
POINTS 2000 float
   -9.02   -9.43   -0.86
   -5.03  -13.58    1.97
    0.12  -11.39    1.26
   -1.44  -10.57   -0.69
   -7.26  -11.66    8.62
  -11.46   -6.11   -7.84
  -12.43   -4.94   -5.71
   -0.16  -12.31   -8.71
    2.16  -13.41   -8.11
   -4.33  -12.12   -0.25
   -3.30  -14.12   -6.49
   -4.63  -12.78   -7.46
  -12.56   -6.89   -2.51
   -1.74  -12.75    5.01
    4.93  -13.58   -0.14
  -11.54   -8.77    4.30
   -1.02  -14.46    6.64
   -7.59   -8.28    4.92
   -3.56   -9.59    5.96
    4.58  -13.31   -9.50
    5.20  -11.66    0.00
   -3.83   -9.92    0.80
   -2.47  -10.81   -9.07
    3.47  -14.08   -8.29
   -5.96  -11.41   -2.03
    1.65  -14.40    0.92
   -0.80  -13.63    7.14
   -0.89  -12.08    8.50
   -1.09  -14.46   -6.17
  -10.34   -8.65    9.50
    0.53  -12.40   -5.76
   -8.18  -11.97    0.93
   -6.74   -8.49    4.30
   -2.10  -13.59   -2.92
    5.69  -12.96   -5.08
   -2.03  -10.16    5.80
   -9.75  -10.73    8.74
    2.15  -13.20    6.00
    1.26  -14.45    1.84
   -1.99  -13.36    3.22
   -9.28   -8.62   -2.14
    3.40  -12.57   -1.46
   -1.61  -13.01   -6.24
   -5.54  -11.46    0.67
   -5.61  -12.75   -8.75
  -10.46   -8.37    3.93
   -3.32   -9.42    3.77
    1.92  -12.64   -4.54
   -0.26  -14.49    0.06
    5.61  -13.37   -6.14
   -0.43  -10.47   -2.73
    0.44  -11.75    8.86
  -13.13   -6.15    9.50
   -0.31  -13.59    2.98
   -8.30  -11.86    6.55
    0.10  -13.57   -1.35
  -10.75   -9.64   -7.48
    1.20  -13.79    4.67
    5.11  -13.57    1.12
   -7.12   -9.70   -8.52
    0.25  -14.50   -2.69
   -6.81  -10.21   -9.45
   -7.03   -8.35    7.02
    0.68  -10.55   -1.88
  -10.80   -7.87    0.27
    2.92  -13.11    3.54
   -1.08  -10.48   -7.30
   -8.51  -11.74    4.79
   -4.11   -9.69   -6.64
   -5.89  -12.45   -2.37
    0.95  -14.46    8.22
   -2.98  -13.29   -9.27
   -6.44   -9.14   -5.73
   -7.12  -12.62    5.45
  -10.51   -5.14    6.51
   -6.35  -13.03   -9.50
  -12.70   -6.20    6.41
   -3.50   -9.40   -5.18
   -2.09  -13.46    1.85
   -9.89  -10.61    0.61
   -2.41  -10.77    8.18
  -12.90   -6.20    3.79
   -5.78   -9.97   -4.17
   -9.59   -6.45   -8.29
    2.06  -11.82   -7.09
   -4.68  -10.57   -7.68
    3.99  -13.94    4.37
  -12.51   -7.23   -8.14
   -2.20  -14.33    2.33
   -4.05  -12.04    6.78
   -7.30  -12.53   -0.43
    3.89  -13.97   -9.19
  -13.28   -5.41   -8.34
   -9.13  -11.25    9.48
   -3.60   -9.41    7.20
   -5.34  -12.63   -3.48
    4.98  -12.82    5.80
   -0.41  -13.64    5.27
   -4.83   -9.47   -4.61
    3.84  -13.98   -2.98
   -2.25  -10.05    1.96
   -9.54  -10.91   -8.51
   -4.14  -13.90    2.62
  -11.68   -8.60    8.51
    3.98  -13.26    2.79
  -13.53   -4.10   -8.01
   -3.42   -9.63    1.94
  -10.82   -9.57   -8.50
    1.52  -11.81    7.39
    1.64  -12.29    2.87
   -8.34  -11.86    9.50
    1.67  -12.19   -1.32
  -10.41   -8.01   -1.45
  -10.38   -8.24   -6.04
   -7.55   -9.23    2.82
  -10.32   -8.79   -7.79
    6.00  -13.20    0.39
   -3.58  -12.96   -6.52
    2.60  -11.46    6.75
  -13.21   -5.46    8.54
   -4.14  -10.10    4.30
   -9.43   -8.23    9.50
   -4.90  -12.60    9.49
   -6.79  -12.81    4.52
   -9.90  -10.59   -1.98
   -9.50  -10.96   -3.91
   -2.63   -9.95   -4.03
    5.04  -13.60    8.71
   -1.57  -11.24   -7.91
   -0.21  -11.10   -7.52
   -2.34  -11.94   -3.56
    2.39  -14.30    6.63
   -7.75  -12.24   -2.85
   -8.04  -12.06   -1.01
   -0.25  -13.58   -8.78
   -1.55  -10.54    7.29
    3.40  -12.55   -8.05
   -3.78  -10.80   -4.79
   -6.21   -9.10    7.90
   -5.52   -9.43    0.02
  -10.22  -10.28   -1.07
    4.44  -12.37    0.70
   -0.65  -13.66   -7.80
  -11.25   -9.15    7.80
   -1.32  -13.59    6.23
    6.18  -12.98    7.60
    1.61  -12.76    7.69
   -4.92   -9.50   -7.64
   -1.89  -11.02   -6.48
   -8.06   -9.34   -8.59
   -8.29  -10.54    6.99
   -2.29  -14.32   -0.79
    3.05  -13.56    6.21
   -3.69  -14.02   -8.35
    3.93  -13.54   -7.58
    0.28  -12.86    1.55
   -1.62  -12.62    1.52
  -10.68   -6.07    6.84
   -4.02  -13.06    9.39
   -6.21   -9.15    3.60
  -12.06   -8.05   -9.49
   -8.89   -8.29    8.10
   -2.90  -10.37   -5.20
   -8.44   -9.67    2.48
  -10.59   -8.16   -8.53
    0.44  -14.49    0.85
    4.33  -13.56   -1.31
    2.72  -12.04   -8.58
  -11.02   -9.35   -2.95
   -2.16  -12.50   -8.63
   -6.48   -9.64    1.26
   -0.26  -12.62   -6.33
   -7.46   -9.01    6.41
   -6.35  -12.02   -7.50
    1.88  -12.25    5.71
   -9.35  -11.08    3.13
   -0.32  -12.08    9.50
  -11.01   -7.94    9.25
   -1.16  -14.45   -7.29
   -4.34  -11.13   -0.41
   -0.09  -14.50   -6.16
  -11.31   -8.38    3.40
   -9.82   -7.47    0.87
   -3.88  -12.18   -7.08
   -7.50  -10.03    9.42
  -10.13   -7.44   -3.02
    4.60  -12.72   -3.59
   -1.25  -10.64   -4.27
   -0.82  -14.47    5.66
    0.11  -11.23   -2.36
    2.46  -12.79   -1.18
   -3.83  -10.57    5.13
    2.98  -14.19    9.50
   -3.22  -11.39   -9.41
  -10.83   -7.11   -4.61
   -7.04   -8.25    5.76
   -8.50  -10.23   -7.54
   -4.77   -9.49   -3.28
    1.74  -11.85   -3.41
   -2.59  -13.44    0.49
   -4.20  -12.29    5.80
   -2.49  -11.01    6.05
   -7.79   -9.47   -7.48
   -1.46  -11.31   -2.26
   -9.42   -8.04    4.73
   -1.38  -12.23   -7.89
  -12.20   -7.16   -5.48
  -10.27  -10.24    9.50
  -10.97   -7.97   -9.50
   -4.54  -13.77   -8.82
   -4.43  -12.97    6.77
    1.31  -11.96   -7.94
   -9.80  -10.67    6.72
   -5.01   -9.83   -5.93
  -12.40   -6.72   -7.22
   -0.48  -14.49    3.38
   -4.58  -13.74    3.90
    1.04  -11.01    7.76
   -5.03  -12.40   -9.48
    1.44  -14.43   -7.44
   -3.47  -12.68    5.20
  -12.88   -6.38    5.19
    2.52  -14.28   -5.82
    5.76  -13.30   -4.13
    2.22  -13.55    7.63
    4.42  -12.83    8.90
    1.17  -13.53   -8.19
   -7.64   -9.45   -2.07
   -3.03  -13.30    9.41
   -2.87  -12.26   -7.96
    5.15  -12.58   -2.18
   -8.01   -7.99    2.47
    1.67  -12.17   -6.08
   -3.17  -12.33    7.20
   -3.67  -13.03   -7.59
    1.00  -14.47   -1.41
    5.28  -13.50   -1.60
   -7.41  -11.16    1.87
   -6.05  -12.09    2.97
    1.20  -12.86   -6.64
   -2.10  -14.35    3.33
   -1.68  -10.38    3.42
   -7.18  -11.64   -9.50
   -1.80  -11.56   -8.84
  -11.44   -6.60    6.37
    6.11  -13.15    2.92
  -11.55   -7.36   -8.96
   -9.01  -11.30    4.04
   -5.59  -10.73    9.46
   -0.88  -12.84    9.18
    0.77  -11.79   -2.89
   -7.28  -11.82   -8.52
   -6.21  -11.99   -8.49
    1.49  -11.33    5.74
  -11.36   -6.37    3.04
   -1.96  -10.51    1.09
   -1.21  -10.73   -9.25
   -2.59  -11.16    5.00
   -0.76  -13.54   -6.38
   -5.69  -13.34   -2.80
   -3.09  -10.80   -7.11
   -4.00  -13.24   -5.66
   -6.62  -12.90    6.27
  -13.54   -4.77    7.84
   -2.18  -14.34   -7.59
   -4.30  -10.67   -2.41
   -0.66  -11.09    1.81
   -6.69  -12.86    9.50
    0.74  -12.73   -8.62
  -10.24   -8.95   -9.03
   -0.77  -14.48   -1.10
    1.50  -11.52    1.27
   -6.00  -12.10   -9.49
   -5.88   -9.54   -6.59
   -9.43  -10.08   -7.20
   -1.75  -12.67    8.38
   -9.21   -9.92    7.03
   -8.89   -9.09    4.34
  -13.13   -5.17   -6.42
    3.35  -12.70    2.20
    0.00  -11.82    5.21
    2.82  -12.05    5.98
   -9.23   -8.19   -4.66
   -0.04  -11.12    9.50
    2.44  -13.48   -1.90
  -13.79   -3.66    9.49
   -0.09  -11.98   -1.74
  -10.84   -7.15    6.97
  -12.80   -4.25   -6.63
   -5.58   -9.58    2.94
    5.36  -12.52    2.10
   -9.56   -6.98    5.51
    1.99  -13.50   -3.02
   -7.20  -10.85   -6.22
   -2.51  -10.09    9.42
    1.38  -14.39   -4.94
   -4.08   -9.02   -5.90
   -5.64  -11.78    6.53
   -5.81  -10.47    5.86
    2.81  -12.75   -4.98
   -6.51  -10.28   -1.26
   -1.36   -9.85    4.41
   -0.34  -12.88    4.03
   -6.01  -13.20   -7.81
   -9.22   -8.36   -0.44
    3.87  -12.35    8.21
   -6.94  -11.55    6.75
    4.85  -13.66   -3.37
   -8.74  -11.40   -3.41
   -9.10   -7.29    7.26
  -11.64   -5.25   -4.04
   -3.28  -12.33    6.21
   -8.32  -11.88   -0.06
   -4.20  -13.88   -3.13
   -3.42   -9.00   -8.67
   -3.97   -9.20   -7.52
   -3.64   -9.79   -9.50
   -3.32  -13.08   -0.14
    4.12  -13.90    7.76
   -2.79  -13.39   -6.97
   -0.88  -11.64   -9.50
  -12.29   -4.66   -4.64
    3.71  -11.89   -3.29
    5.88  -12.47   -1.20
   -7.38  -12.46   -1.93
   -6.57  -12.93    2.51
   -5.01  -13.61    3.01
   -0.96  -11.36    9.19
    1.36  -12.81   -5.35
   -5.68  -12.19    5.00
  -10.20   -9.93   -0.05
   -5.94  -10.07   -2.06
    5.30  -12.63    3.20
    4.64  -12.69   -5.20
    3.57  -13.42    9.05
   -1.15  -14.45   -4.12
  -11.82   -6.45    9.42
   -3.13  -14.16    8.08
    4.41  -12.42    2.46
  -10.68   -9.80   -1.81
  -10.12  -10.35   -4.40
    1.87  -12.55   -8.53
   -0.68  -10.71    4.71
   -0.14  -12.70    6.76
   -4.94  -10.49   -9.49
   -3.67  -11.96   -8.64
  -12.37   -6.96    5.84
   -9.70  -10.70   -5.84
   -7.82  -10.75   -7.02
   -1.97  -14.37    6.94
    2.61  -14.26   -7.82
   -5.29  -11.42   -9.30
    2.81  -14.17   -2.79
    0.33  -14.50    5.41
   -4.97  -11.19   -4.72
  -11.24   -6.54    5.17
   -8.81   -7.94   -7.56
    3.26  -14.13    8.26
   -8.03  -10.88    7.89
   -2.03  -13.42   -8.99
   -0.03  -14.50    8.68
    2.04  -12.54    8.99
  -11.67   -7.73   -6.82
   -7.92   -8.88    8.23
    1.06  -11.13    2.15
   -5.62  -13.37   -0.81
   -2.82  -14.22    9.11
    4.21  -13.87   -4.10
  -12.28   -7.72   -3.05
  -10.01   -9.45    7.95
   -8.17   -9.22   -6.20
   -2.84   -9.57   -7.61
   -7.52   -9.15   -4.93
   -5.86  -12.31    9.45
  -10.14  -10.37   -9.12
    5.13  -13.56    5.10
   -6.56   -8.36    9.30
  -10.27  -10.11    4.24
    1.56  -12.81   -3.62
   -7.01   -8.73   -7.31
    4.72  -12.62   -7.55
   -2.75  -14.23   -5.33
    3.27  -13.47   -4.45
   -5.81  -11.37    7.43
   -2.87  -13.35   -8.09
   -6.27   -9.36   -9.32
   -9.37  -10.81   -1.07
   -6.67   -9.63    2.25
    0.95  -13.75   -5.77
   -4.76   -8.98   -2.34
   -3.34  -12.32    9.43
   -8.38   -7.83    6.83
  -10.51   -7.09   -9.43
   -9.26   -7.98    6.37
   -7.83   -9.84    8.49
   -3.78   -9.96    2.81
[...]
POINT_DATA 2000
SCALARS radius float
LOOKUP_TABLE default
  0.500000000000000     
  0.500000000000000     
  0.500000000000000     
  0.500000000000000     
  0.500000000000000     
  0.500000000000000     
  0.500000000000000     
  0.500000000000000     
  0.500000000000000     
  0.500000000000000     
  0.500000000000000     
  0.500000000000000     
  0.500000000000000     
  0.500000000000000     
  0.500000000000000     
  0.500000000000000     
  0.500000000000000     
  0.500000000000000     
  0.500000000000000     
  0.500000000000000     
  0.500000000000000     
  0.500000000000000     
  0.500000000000000     
  0.500000000000000     
  0.500000000000000     
  0.500000000000000     
  0.500000000000000     
  0.500000000000000     
  0.500000000000000     
  0.500000000000000     
  0.500000000000000     
  0.500000000000000     
  0.500000000000000     
  0.500000000000000     
  0.500000000000000     
  0.500000000000000     
  0.500000000000000     
  0.500000000000000     
  0.500000000000000     
  0.500000000000000     
  0.500000000000000     
  0.500000000000000     
  0.500000000000000     
  0.500000000000000     
  0.500000000000000     
  0.500000000000000     
  0.500000000000000     
  0.500000000000000     
  0.500000000000000     
  0.500000000000000     
  0.500000000000000     
  0.500000000000000     
  0.500000000000000     
  0.500000000000000     
  0.500000000000000     
  0.500000000000000     
  0.500000000000000     
  0.500000000000000     
  0.500000000000000     
  0.500000000000000     
  0.500000000000000     
  0.500000000000000     
  0.500000000000000     
  0.500000000000000     
  0.500000000000000     
  0.500000000000000     
  0.500000000000000     
  0.500000000000000     
  0.500000000000000     
  0.500000000000000     
  0.500000000000000     
  0.500000000000000     
  0.500000000000000     
  0.500000000000000     
  0.500000000000000     
  0.500000000000000     
  0.500000000000000     
  0.500000000000000     
  0.500000000000000     
  0.500000000000000     
  0.500000000000000     
  0.500000000000000     
  0.500000000000000     
  0.500000000000000     
  0.500000000000000     
  0.500000000000000     
  0.500000000000000     
  0.500000000000000     
  0.500000000000000     
  0.500000000000000     
  0.500000000000000     
  0.500000000000000     
  0.500000000000000     
  0.500000000000000     
  0.500000000000000     
  0.500000000000000     
  0.500000000000000     
  0.500000000000000     
  0.500000000000000     
  0.500000000000000     
  0.500000000000000     
  0.500000000000000     
  0.500000000000000     
  0.500000000000000     
  0.500000000000000     
  0.500000000000000     
  0.500000000000000     
  0.500000000000000     
  0.500000000000000     
  0.500000000000000     
  0.500000000000000     
  0.500000000000000     
  0.500000000000000     
  0.500000000000000     
  0.500000000000000     
  0.500000000000000     
  0.500000000000000     
  0.500000000000000     
  0.500000000000000     
  0.500000000000000     
  0.500000000000000     
  0.500000000000000     
  0.500000000000000     
  0.500000000000000     
  0.500000000000000     
  0.500000000000000     
  0.500000000000000     
  0.500000000000000     
  0.500000000000000     
  0.500000000000000     
  0.500000000000000     
  0.500000000000000     
  0.500000000000000     
  0.500000000000000     
  0.500000000000000     
  0.500000000000000     
  0.500000000000000     
  0.500000000000000     
  0.500000000000000     
  0.500000000000000     
  0.500000000000000     
  0.500000000000000     
  0.500000000000000     
  0.500000000000000     
  0.500000000000000     
  0.500000000000000     
  0.500000000000000     
  0.500000000000000     
  0.500000000000000     
  0.500000000000000     
  0.500000000000000     
  0.500000000000000     
  0.500000000000000     
  0.500000000000000     
  0.500000000000000     
  0.500000000000000     
  0.500000000000000     
  0.500000000000000     
  0.500000000000000     
  0.500000000000000     
  0.500000000000000     
  0.500000000000000     
  0.500000000000000     
  0.500000000000000     
  0.500000000000000     
  0.500000000000000     
  0.500000000000000     
  0.500000000000000     
  0.500000000000000     
  0.500000000000000     
  0.500000000000000     
  0.500000000000000     
  0.500000000000000     
  0.500000000000000     
  0.500000000000000     
  0.500000000000000     
  0.500000000000000     
  0.500000000000000     
  0.500000000000000     
  0.500000000000000     
  0.500000000000000     
  0.500000000000000     
  0.500000000000000     
  0.500000000000000     
  0.500000000000000     
  0.500000000000000     
  0.500000000000000     
  0.500000000000000     
  0.500000000000000     
  0.500000000000000     
  0.500000000000000     
  0.500000000000000     
  0.500000000000000     
  0.500000000000000     
  0.500000000000000     
  0.500000000000000     
  0.500000000000000     
  0.500000000000000     
  0.500000000000000     
  0.500000000000000     
  0.500000000000000     
  0.500000000000000     
  0.500000000000000     
  0.500000000000000     
  0.500000000000000     
  0.500000000000000     
  0.500000000000000     
  0.500000000000000     
  0.500000000000000     
  0.500000000000000     
  0.500000000000000     
  0.500000000000000     
  0.500000000000000     
  0.500000000000000     
  0.500000000000000     
  0.500000000000000     
  0.500000000000000     
  0.500000000000000     
  0.500000000000000     
  0.500000000000000     
  0.500000000000000     
  0.500000000000000     
  0.500000000000000     
  0.500000000000000     
  0.500000000000000     
  0.500000000000000     
  0.500000000000000     
  0.500000000000000     
  0.500000000000000     
  0.500000000000000     
  0.500000000000000     
  0.500000000000000     
  0.500000000000000     
  0.500000000000000     
  0.500000000000000     
  0.500000000000000     
  0.500000000000000     
  0.500000000000000     
  0.500000000000000     
  0.500000000000000     
  0.500000000000000     
  0.500000000000000     
  0.500000000000000     
  0.500000000000000     
  0.500000000000000     
  0.500000000000000     
  0.500000000000000     
  0.500000000000000     
  0.500000000000000     
  0.500000000000000     
  0.500000000000000     
  0.500000000000000     
  0.500000000000000     
  0.500000000000000     
  0.500000000000000     
  0.500000000000000     
  0.500000000000000     
  0.500000000000000     
  0.500000000000000     
  0.500000000000000     
  0.500000000000000     
  0.500000000000000     
  0.500000000000000     
  0.500000000000000     
  0.500000000000000     
  0.500000000000000     
  0.500000000000000     
  0.500000000000000     
  0.500000000000000     
  0.500000000000000     
  0.500000000000000     
  0.500000000000000     
  0.500000000000000     
  0.500000000000000     
  0.500000000000000     
  0.500000000000000     
  0.500000000000000     
  0.500000000000000     
  0.500000000000000     
  0.500000000000000     
  0.500000000000000     
  0.500000000000000     
  0.500000000000000     
  0.500000000000000     
  0.500000000000000     
  0.500000000000000     
  0.500000000000000     
  0.500000000000000     
  0.500000000000000     
  0.500000000000000     
  0.500000000000000     
  0.500000000000000     
  0.500000000000000     
  0.500000000000000     
  0.500000000000000     
  0.500000000000000     
  0.500000000000000     
  0.500000000000000     
  0.500000000000000     
  0.500000000000000     
  0.500000000000000     
  0.500000000000000     
  0.500000000000000     
  0.500000000000000     
  0.500000000000000     
  0.500000000000000     
  0.500000000000000     
  0.500000000000000     
  0.500000000000000     
  0.500000000000000     
  0.500000000000000     
  0.500000000000000     
  0.500000000000000     
  0.500000000000000     
  0.500000000000000     
  0.500000000000000     
  0.500000000000000     
  0.500000000000000     
  0.500000000000000     
  0.500000000000000     
  0.500000000000000     
  0.500000000000000     
  0.500000000000000     
  0.500000000000000     
  0.500000000000000     
  0.500000000000000     
  0.500000000000000     
  0.500000000000000     
  0.500000000000000     
  0.500000000000000     
  0.500000000000000     
  0.500000000000000     
  0.500000000000000     
  0.500000000000000     
  0.500000000000000     
  0.500000000000000     
  0.500000000000000     
  0.500000000000000     
  0.500000000000000     
  0.500000000000000     
  0.500000000000000     
  0.500000000000000     
  0.500000000000000     
  0.500000000000000     
  0.500000000000000     
  0.500000000000000     
  0.500000000000000     
  0.500000000000000     
  0.500000000000000     
  0.500000000000000     
  0.500000000000000     
  0.500000000000000     
  0.500000000000000     
  0.500000000000000     
  0.500000000000000     
  0.500000000000000     
  0.500000000000000     
  0.500000000000000     
  0.500000000000000     
  0.500000000000000     
  0.500000000000000     
  0.500000000000000     
  0.500000000000000     
  0.500000000000000     
  0.500000000000000     
  0.500000000000000     
  0.500000000000000     
  0.500000000000000     
  0.500000000000000     
  0.500000000000000     
  0.500000000000000     
  0.500000000000000     
  0.500000000000000     
  0.500000000000000     
  0.500000000000000     
  0.500000000000000     
  0.500000000000000     
  0.500000000000000     
  0.500000000000000     
  0.500000000000000     
  0.500000000000000     
  0.500000000000000     
  0.500000000000000     
  0.500000000000000     
  0.500000000000000     
  0.500000000000000     
  0.500000000000000     
  0.500000000000000     
  0.500000000000000     
  0.500000000000000     
  0.500000000000000     
  0.500000000000000     
  0.500000000000000     
  0.500000000000000     
  0.500000000000000     
  0.500000000000000     
  0.500000000000000     
  0.500000000000000     
  0.500000000000000     
  0.500000000000000     
  0.500000000000000     
  0.500000000000000     
  0.500000000000000     
  0.500000000000000     
  0.500000000000000     
  0.500000000000000     
  0.500000000000000     
  0.500000000000000     
  0.500000000000000     
  0.500000000000000     
  0.500000000000000     
  0.500000000000000     
  0.500000000000000     
  0.500000000000000     
  0.500000000000000     
  0.500000000000000     
  0.500000000000000     
  0.500000000000000     
  0.500000000000000     
  0.500000000000000     
  0.500000000000000     
  0.500000000000000     
  0.500000000000000     
  0.500000000000000     
  0.500000000000000     
  0.500000000000000     
  0.500000000000000     
  0.500000000000000     
  0.500000000000000     
  0.500000000000000     
  0.500000000000000     
  0.500000000000000     
  0.500000000000000     
  0.500000000000000     
  0.500000000000000     
  0.500000000000000     
  0.500000000000000     
  0.500000000000000     
  0.500000000000000     
  0.500000000000000     
  0.500000000000000     
  0.500000000000000     
  0.500000000000000     
  0.500000000000000     
  0.500000000000000     
  0.500000000000000     
  0.500000000000000     
  0.500000000000000     
  0.500000000000000     
  0.500000000000000     
  0.500000000000000     
  0.500000000000000     
  0.500000000000000     
  0.500000000000000     
  0.500000000000000     
  0.500000000000000     
  0.500000000000000     
  0.500000000000000     
  0.500000000000000     
  0.500000000000000     
  0.500000000000000     
  0.500000000000000     
  0.500000000000000     
  0.500000000000000     
  0.500000000000000     
  0.500000000000000     
  0.500000000000000     
  0.500000000000000     
  0.500000000000000     
  0.500000000000000     
  0.500000000000000     
  0.500000000000000     
  0.500000000000000     
  0.500000000000000     
  0.500000000000000     
  0.500000000000000     
  0.500000000000000     
  0.500000000000000     
  0.500000000000000     
  0.500000000000000     
  0.500000000000000     
  0.500000000000000     
  0.500000000000000     
  0.500000000000000     
  0.500000000000000     
  0.500000000000000     
  0.500000000000000     
  0.500000000000000     
  0.500000000000000     
  0.500000000000000     
  0.500000000000000     
  0.500000000000000     
  0.500000000000000     
  0.500000000000000     
  0.500000000000000     
  0.500000000000000     
  0.500000000000000     
  0.500000000000000     
  0.500000000000000     
  0.500000000000000     
  0.500000000000000     
  0.500000000000000     
  0.500000000000000     
  0.500000000000000     
  0.500000000000000     
  0.500000000000000     
  0.500000000000000     
  0.500000000000000     
  0.500000000000000     
  0.500000000000000     
  0.500000000000000     
  0.500000000000000     
  0.500000000000000     
  0.500000000000000     
  0.500000000000000     
  0.500000000000000     
  0.500000000000000     
  0.500000000000000     
  0.500000000000000     
  0.500000000000000     
  0.500000000000000     
  0.500000000000000     
  0.500000000000000     
  0.500000000000000     
  0.500000000000000     
  0.500000000000000     
  0.500000000000000     
  0.500000000000000     
  0.500000000000000     
  0.500000000000000     
  0.500000000000000     
  0.500000000000000     
  0.500000000000000     
  0.500000000000000     
  0.500000000000000     
  0.500000000000000     
  0.500000000000000     
  0.500000000000000     
  0.500000000000000     
  0.500000000000000     
  0.500000000000000     
  0.500000000000000     
  0.500000000000000     
  0.500000000000000     
  0.500000000000000     
  0.500000000000000     
  0.500000000000000     
  0.500000000000000     
  0.500000000000000     
  0.500000000000000     
  0.500000000000000     
  0.500000000000000     
  0.500000000000000     
  0.500000000000000     
  0.500000000000000     
  0.500000000000000     
  0.500000000000000     
  0.500000000000000     
  0.500000000000000     
  0.500000000000000     
  0.500000000000000     
  0.500000000000000     
  0.500000000000000     
  0.500000000000000     
  0.500000000000000     
  0.500000000000000     
  0.500000000000000     
  0.500000000000000     
  0.500000000000000     
  0.500000000000000     
  0.500000000000000     
  0.500000000000000     
  0.500000000000000     
  0.500000000000000     
  0.500000000000000     
  0.500000000000000     
  0.500000000000000     
  0.500000000000000     
  0.500000000000000     
  0.500000000000000     
  0.500000000000000     
  0.500000000000000     
  0.500000000000000     
  0.500000000000000     
  0.500000000000000     
  0.500000000000000     
  0.500000000000000     
  0.500000000000000     
  0.500000000000000     
  0.500000000000000     
  0.500000000000000     
  0.500000000000000     
  0.500000000000000     
  0.500000000000000     
  0.500000000000000     
  0.500000000000000     
  0.500000000000000     
  0.500000000000000     
  0.500000000000000     
  0.500000000000000     
  0.500000000000000     
  0.500000000000000     
  0.500000000000000     
  0.500000000000000     
  0.500000000000000     
  0.500000000000000     
  0.500000000000000     
  0.500000000000000     
  0.500000000000000     
  0.500000000000000     
  0.500000000000000     
  0.500000000000000     
  0.500000000000000     
  0.500000000000000     
  0.500000000000000     
  0.500000000000000     
  0.500000000000000     
  0.500000000000000     
  0.500000000000000     
  0.500000000000000     
  0.500000000000000     
  0.500000000000000     
  0.500000000000000     
  0.500000000000000     
  0.500000000000000     
  0.500000000000000     
  0.500000000000000     
  0.500000000000000     
  0.500000000000000     
  0.500000000000000     
  0.500000000000000     
  0.500000000000000     
  0.500000000000000     
  0.500000000000000     
  0.500000000000000     
  0.500000000000000     
  0.500000000000000     
  0.500000000000000     
  0.500000000000000     
  0.500000000000000     
  0.500000000000000     
  0.500000000000000     
  0.500000000000000     
  0.500000000000000     
  0.500000000000000     
  0.500000000000000     
  0.500000000000000     
  0.500000000000000     
  0.500000000000000     
  0.500000000000000     
  0.500000000000000     
  0.500000000000000     
  0.500000000000000     
  0.500000000000000     
  0.500000000000000     
  0.500000000000000     
  0.500000000000000     
  0.500000000000000     
  0.500000000000000     
  0.500000000000000     
  0.500000000000000     
  0.500000000000000     
  0.500000000000000     
  0.500000000000000     
  0.500000000000000     
  0.500000000000000     
  0.500000000000000     
  0.500000000000000     
  0.500000000000000     
  0.500000000000000     
  0.500000000000000     
  0.500000000000000     
  0.500000000000000     
  0.500000000000000     
  0.500000000000000     
  0.500000000000000     
  0.500000000000000     
  0.500000000000000     
  0.500000000000000     
  0.500000000000000     
  0.500000000000000     
  0.500000000000000     
  0.500000000000000     
  0.500000000000000     
  0.500000000000000     
  0.500000000000000     
  0.500000000000000     
  0.500000000000000     
  0.500000000000000     
  0.500000000000000     
  0.500000000000000     
  0.500000000000000     
  0.500000000000000     
  0.500000000000000     
  0.500000000000000     
  0.500000000000000     
  0.500000000000000     
  0.500000000000000     
  0.500000000000000     
  0.500000000000000     
  0.500000000000000     
  0.500000000000000     
  0.500000000000000     
  0.500000000000000     
  0.500000000000000     
  0.500000000000000     
  0.500000000000000     
  0.500000000000000     
  0.500000000000000     
  0.500000000000000     
  0.500000000000000     
  0.500000000000000     
  0.500000000000000     
  0.500000000000000     
  0.500000000000000     
  0.500000000000000     
  0.500000000000000     
  0.500000000000000     
  0.500000000000000     
  0.500000000000000     
  0.500000000000000     
  0.500000000000000     
  0.500000000000000     
  0.500000000000000     
  0.500000000000000     
  0.500000000000000     
  0.500000000000000     
  0.500000000000000     
  0.500000000000000     
  0.500000000000000     
  0.500000000000000     
  0.500000000000000     
  0.500000000000000     
  0.500000000000000     
  0.500000000000000     
  0.500000000000000     
  0.500000000000000     
  0.500000000000000     
  0.500000000000000     
  0.500000000000000     
  0.500000000000000     
  0.500000000000000     
  0.500000000000000     
  0.500000000000000     
  0.500000000000000     
  0.500000000000000     
  0.500000000000000     
  0.500000000000000     
  0.500000000000000     
  0.500000000000000     
  0.500000000000000     
  0.500000000000000     
  0.500000000000000     
  0.500000000000000     
  0.500000000000000     
  0.500000000000000     
  0.500000000000000     
  0.500000000000000     
  0.500000000000000     
  0.500000000000000     
  0.500000000000000     
  0.500000000000000     
  0.500000000000000     
  0.500000000000000     
  0.500000000000000     
  0.500000000000000     
  0.500000000000000     
  0.500000000000000     
  0.500000000000000     
  0.500000000000000     
  0.500000000000000     
  0.500000000000000     
  0.500000000000000     
  0.500000000000000     
  0.500000000000000     
  0.500000000000000     
  0.500000000000000     
  0.500000000000000     
  0.500000000000000     
  0.500000000000000     
  0.500000000000000     
  0.500000000000000     
  0.500000000000000     
  0.500000000000000     
  0.500000000000000     
  0.500000000000000     
  0.500000000000000     
  0.500000000000000     
  0.500000000000000     
  0.500000000000000     
  0.500000000000000     
  0.500000000000000     
  0.500000000000000     
  0.500000000000000     
  0.500000000000000     
  0.500000000000000     
  0.500000000000000     