# vtk DataFile Version 5.1
Data.vtk
ASCII
DATASET UNSTRUCTURED_GRID
 
POINTS 2000 float
   -9.43   -9.66   -0.23
   -0.73  -14.48    2.11
   -6.05  -10.02    2.56
   -5.23  -11.51   -1.30
    1.47  -13.37    7.17
   -3.91  -10.37   -8.54
   -7.94  -12.13   -8.61
   -2.60  -10.68   -6.88
   -3.20  -14.14   -5.55
   -3.66  -13.42   -0.78
    2.98  -12.24   -2.62
   -2.05  -10.14   -7.55
   -6.60  -11.63   -0.51
   -8.28  -10.09    1.06
    2.42  -13.00   -1.97
   -4.24  -13.87    1.18
   -4.52  -12.92    5.95
   -7.45   -9.32    4.65
  -11.45   -8.89    7.82
   -6.13  -10.41   -3.47
   -5.35   -8.89   -0.77
  -12.45   -7.00    6.12
    0.45  -12.56   -9.50
  -10.18   -7.72   -5.35
   -4.56  -12.24    0.55
    2.14  -14.34   -8.44
   -5.69   -8.88    4.62
   -3.11  -11.70    7.57
    2.68  -14.25   -0.75
    4.00  -12.28    3.81
   -5.41  -10.03   -2.26
    0.73  -14.48   -1.84
   -0.31  -14.50    7.99
   -7.68  -11.25   -2.65
   -3.81  -10.72   -3.55
   -8.62   -9.30    6.40
    1.77  -11.95    7.79
    0.36  -12.72    5.77
    3.12  -13.19    0.80
   -6.63  -11.02    1.95
   -6.45  -12.99    2.61
   -1.68  -10.66   -0.92
    3.47  -13.18   -6.59
   -6.62  -10.05    1.74
    1.67  -12.34   -7.32
   -7.43  -12.45    9.50
   -7.24  -12.56    4.09
   -4.23  -12.24   -4.19
   -8.82  -11.51    5.83
   -8.86   -8.97   -8.15
   -7.67   -9.94   -6.27
   -1.91  -10.83    9.49
    0.96  -12.62    7.58
   -5.51  -12.64    2.25
    0.58  -13.78    5.32
   -2.39  -14.30    0.73
   -0.64  -14.48   -7.95
    6.07  -13.17    0.76
    1.96  -11.47   -0.32
    0.23  -13.55   -9.50
    3.38  -13.13   -2.41
    5.85  -13.27   -6.94
   -2.42  -12.52    6.95
  -12.20   -6.96    3.11
  -12.87   -6.64    2.44
   -2.69  -13.28    0.60
   -0.05  -12.00   -0.85
   -6.34  -11.97    4.17
   -5.28  -10.68   -0.31
   -9.13   -9.85   -4.26
    3.77  -13.55    8.61
  -10.81   -7.20   -5.99
   -7.58  -10.23   -2.58
    3.08  -14.17    6.03
   -5.54  -13.39    5.11
   -0.25  -10.44   -5.40
   -1.97  -14.37    7.71
   -9.97  -10.53   -8.50
   -3.33  -13.33    2.03
   -3.88  -13.97   -3.07
   -9.07  -11.31    9.47
   -2.81  -14.22    6.25
   -4.26  -11.75   -1.12
   -6.68  -12.87   -9.50
   -7.05   -8.75   -5.91
   -5.16  -11.69   -6.00
    0.38  -11.90    0.05
   -3.79  -13.99   -7.16
    4.34  -13.27    0.22
   -7.35  -11.52    8.02
   -9.96   -9.26    0.54
   -7.33  -11.02   -8.65
    4.03  -13.47   -3.81
    3.98  -13.03    5.42
   -9.50   -9.96    3.47
    2.20  -14.33   -3.77
    1.10  -12.79    1.67
    1.69  -13.68    5.32
  -11.92   -8.26   -0.26
    4.28  -13.86   -2.83
   -5.12  -10.36    2.45
   -2.73  -14.24   -4.66
    2.66  -14.25    1.31
   -0.92  -14.47    7.19
    5.14  -12.71    0.81
   -2.53  -14.28   -8.93
   -8.72   -9.03    5.09
    3.05  -13.35   -4.06
   -3.55   -9.68    3.70
   -1.56  -12.68    2.74
    4.88  -12.57    5.09
   -0.79  -13.53   -2.27
   -9.45  -10.99   -3.80
   -4.19  -12.92   -7.85
  -11.47   -7.88    3.60
   -9.47   -9.53   -9.49
    2.86  -11.93   -0.38
    4.10  -13.03   -4.84
  -12.52   -6.01    5.98
    0.49  -11.76    7.36
   -8.31  -11.89    8.49
    5.37  -13.47    8.44
   -4.08  -11.38    7.51
    1.10  -14.46    4.81
    3.49  -13.66   -0.15
   -4.68  -13.72   -5.48
  -10.44  -10.06   -6.67
   -1.81  -11.18   -0.08
  -12.69   -7.00   -9.49
   -9.18  -11.23   -9.50
   -5.79  -11.35   -3.57
    0.57  -13.65    3.11
   -0.67  -14.48   -0.44
    0.66  -14.49    0.73
   -0.16  -12.28   -8.43
   -4.99  -10.99    6.35
   -6.69   -8.60   -2.93
  -10.33   -7.11   -3.74
   -4.46  -12.80    9.50
  -13.07   -5.76    4.03
   -7.07  -11.68   -3.33
    0.47  -10.85   -0.03
    0.94  -13.59   -4.75
    1.44  -11.54    6.29
    4.73  -13.71    5.58
   -8.63   -8.30    6.49
   -1.35  -12.53    5.37
   -2.62  -13.46   -9.50
  -10.04   -9.36   -5.51
   -7.01   -9.59   -7.47
   -7.56  -11.06    5.40
    2.57  -14.27   -1.78
    3.34  -13.40    4.49
    2.53  -14.28   -5.71
   -3.23  -11.52   -3.68
    1.21  -11.41    0.34
   -0.40  -11.86    1.58
   -2.95  -14.20    8.24
    2.23  -12.88    5.89
   -8.22  -11.92    3.39
    2.50  -12.59   -6.79
   -5.76  -13.31    8.44
   -8.73  -10.04   -8.53
   -6.99  -12.70    0.50
   -2.34  -11.44   -8.59
   -0.31  -13.68    1.50
   -3.31  -11.36   -0.38
  -12.74   -5.66   -7.38
   -5.36  -13.40   -1.49
   -1.55  -12.94   -7.76
  -12.10   -7.99   -1.21
    0.67  -13.64   -8.28
   -4.53  -11.87    8.27
    3.44  -14.09   -6.15
    2.67  -13.82    5.19
   -0.05  -14.50   -1.22
   -1.97  -11.44    7.71
    0.43  -11.20    8.19
    2.12  -14.34   -4.77
   -3.07  -12.60   -0.30
   -5.28   -9.48   -4.98
   -5.32  -13.49    1.20
   -8.02  -12.08   -0.81
   -1.56  -10.63   -9.50
   -6.88   -9.43    7.96
  -11.36   -8.96   -4.57
    5.70  -12.97   -4.15
   -7.59   -8.71   -2.42
   -0.61  -10.92    5.12
   -2.71  -10.14   -0.40
   -1.82  -13.52   -2.22
   -5.72  -10.44    4.92
  -12.73   -6.94    8.01
   -0.99  -11.07   -8.01
   -2.27  -14.32   -5.87
   -9.19   -9.73    7.20
    4.82  -13.63   -9.50
  -10.58   -8.62   -5.11
    0.57  -11.65   -1.61
   -9.07  -11.31   -2.93
   -6.12  -12.29    5.94
   -8.27  -11.91    9.49
   -6.53  -11.86   -4.15
   -1.04  -13.39   -1.31
   -2.21  -10.78    1.86
    0.36  -11.78   -5.40
   -7.09  -12.65   -8.50
   -0.44  -11.27    7.71
   -3.86  -13.98   -9.50
   -5.66  -10.63   -8.57
   -1.32  -13.55    7.28
   -5.12  -10.99   -7.81
   -0.74  -14.48    3.87
   -3.54  -11.08   -1.31
    3.48  -14.08   -9.50
   -6.45  -12.99   -0.28
   -2.24  -14.32    1.72
   -1.68  -11.11    3.79
    0.10  -12.83   -6.78
    2.15  -11.98   -2.12
   -0.45  -14.49    9.49
   -8.30  -10.76    6.76
    0.66  -12.42   -7.50
   -0.21  -13.80   -3.05
  -10.10   -9.03    8.67
   -4.71  -11.72    9.50
    3.76  -11.95   -5.17
  -10.90   -9.53   -3.01
    2.32  -12.65    8.54
   -5.83   -9.58   -9.35
   -1.29  -10.46   -2.50
   -5.55  -12.44    4.58
   -5.01  -10.42   -5.16
   -1.73  -12.90    7.91
   -5.84   -9.72   -4.16
    1.51  -11.37   -1.40
    2.44  -14.29    0.28
   -1.69  -14.40    2.56
   -6.78  -10.73    3.05
   -1.12  -12.10   -6.44
    1.29  -13.06    4.65
   -6.48  -12.97    9.50
   -1.27  -10.36   -6.97
   -7.16   -8.94   -8.91
   -3.97  -13.93    3.88
    3.42  -12.66    0.01
   -8.30   -9.42   -9.50
   -4.67  -13.73   -2.13
    0.70  -14.11    9.50
   -5.98   -9.86    7.92
    0.94  -13.04   -2.55
   -0.18  -11.13   -8.59
   -1.67  -12.40   -8.59
  -11.51   -6.96    5.07
   -8.51  -11.74    6.76
   -4.55  -12.18    3.83
   -3.10  -12.13   -9.49
   -8.43   -8.37    3.14
   -0.25  -12.31   -5.99
   -7.68  -11.39   -1.66
   -9.93  -10.56   -9.50
   -4.14  -13.44   -8.71
    3.84  -13.27    3.55
    0.77  -14.48    8.57
    1.79  -11.98   -5.13
  -10.95   -7.52   -2.93
  -12.81   -6.62    4.48
    3.73  -14.01    9.50
   -4.42  -10.49   -7.22
   -1.70  -11.75   -7.82
   -5.91  -12.18   -0.98
    0.67  -13.73    0.08
  -11.51   -6.40   -7.29
  -12.49   -7.37   -8.58
   -6.18  -12.00   -9.50
   -6.30   -9.91    5.69
   -4.91  -12.70    3.06
   -6.90  -11.85    8.85
   -6.53  -12.08   -7.88
    0.95  -12.01   -0.75
    0.61  -12.23    4.63
  -10.99   -6.75    8.49
   -8.24  -10.80   -5.43
   -0.93  -12.54    9.49
    4.38  -12.84   -1.63
   -2.25  -14.32    5.42
    0.06  -13.64   -0.71
   -2.69  -12.55    7.91
    0.09  -14.50   -8.63
   -7.76  -12.25    6.34
   -3.54  -11.04    2.66
    2.73  -14.00    9.50
    1.46  -14.42   -3.11
   -2.23  -13.32   -7.13
   -4.98  -12.69    8.62
   -8.49  -10.73   -1.18
   -9.25   -7.99   -5.61
   -4.41  -12.84    7.78
   -4.61  -10.17    4.83
   -6.15   -8.87   -3.72
   -0.03  -12.80   -0.12
  -13.23   -5.88    5.20
   -1.37  -13.61    3.08
   -2.42  -14.30   -1.90
   -8.32  -11.87    0.18
   -6.97   -9.30    6.84
   -4.56  -13.76    6.47
  -12.44   -5.66   -4.30
    2.40  -13.45   -3.31
    2.01  -13.10    9.50
   -5.42  -11.55   -6.96
   -4.02  -12.88    6.86
    0.83  -14.48   -0.73
    5.53  -13.41   -0.82
   -7.33  -11.49   -7.77
   -7.05  -12.67   -4.42
   -5.31  -10.42   -9.49
   -4.84  -13.67   -3.12
    2.81  -12.51    1.72
    2.34  -12.84   -7.86
   -2.69  -11.63   -7.18
    0.57  -14.49   -6.73
   -3.24  -12.55   -1.68
   -4.82  -11.41   -3.00
    1.52  -14.39   -6.11
   -6.31  -13.06   -1.30
    2.85  -13.33    3.62
   -5.51  -13.41    6.50
   -2.21  -10.98   -5.25
   -2.53  -11.71    1.42
   -1.29  -14.44   -3.55
   -2.34  -11.45   -1.12
   -3.65   -9.75    1.02
    0.43  -13.15   -3.46
   -5.09  -10.30    8.01
    3.82  -11.85   -3.03
    2.14  -13.74    8.73
    0.88  -10.63    2.37
    3.99  -11.99   -1.27
   -9.06  -11.32   -1.78
   -0.16  -14.50   -6.02
  -10.91   -9.55   -9.50
  -10.52   -9.98    5.39
    1.25  -13.47    6.20
   -7.22  -10.05   -9.50
   -0.87  -12.22   -7.41
   -4.50  -13.79    7.47
    2.40  -14.30   -2.79
   -2.77  -12.40   -3.53
   -1.97  -10.32    4.62
    0.64  -11.67   -4.04
   -4.35   -9.47   -8.58
    2.65  -11.51   -3.23
    2.15  -12.62    3.47
   -3.34  -12.80   -5.96
    0.20  -14.50    7.13
   -8.66  -11.63   -3.88
   -9.73   -7.82    8.03
   -0.50  -14.49    6.28
    4.01  -12.24   -6.48
   -8.86   -9.17    8.68
   -4.85   -9.15    9.25
   -3.03  -14.18   -6.53
   -3.13  -10.19    9.50
  -13.58   -5.09    9.37
    4.61  -13.75    1.07
    1.11  -12.01    5.47
   -8.97   -9.65   -6.54
   -1.42  -14.43   -6.44
   -3.50  -14.07    9.50
   -8.96   -9.74   -5.55
   -0.54  -12.42   -9.48
  -10.20  -10.31   -3.74
   -3.46   -9.42    8.94
    0.87  -13.98   -3.79
    3.65  -11.94    1.82
   -7.92  -12.14    5.36
   -3.43  -14.09   -3.96
   -2.55  -13.41   -5.18
    1.31  -11.49   -7.71
   -6.18  -11.14   -7.86
   -1.75  -14.39   -4.51
   -0.02  -13.73   -5.01
   -7.44  -11.46    6.86
    4.33  -13.10   -6.04
   -2.81  -11.17   -9.50
   -2.10  -14.20   -3.01
  -12.16   -6.83   -0.05
    0.69  -12.65   -5.04
   -3.52  -13.04   -9.49
  -10.09   -7.12    9.03
  -12.43   -7.43    4.95
    1.15  -14.45   -8.60
   -7.09  -12.65    5.10
    4.41  -13.00    8.03
  -10.94   -9.52    3.38
[...]
POINT_DATA 2000
SCALARS radius float
LOOKUP_TABLE default
  0.500000000000000     
  0.500000000000000     
  0.500000000000000     
  0.500000000000000     
  0.500000000000000     
  0.500000000000000     
  0.500000000000000     
  0.500000000000000     
  0.500000000000000     
  0.500000000000000     
  0.500000000000000     
  0.500000000000000     
  0.500000000000000     
  0.500000000000000     
  0.500000000000000     
  0.500000000000000     
  0.500000000000000     
  0.500000000000000     
  0.500000000000000     
  0.500000000000000     
  0.500000000000000     
  0.500000000000000     
  0.500000000000000     
  0.500000000000000     
  0.500000000000000     
  0.500000000000000     
  0.500000000000000     
  0.500000000000000     
  0.500000000000000     
  0.500000000000000     
  0.500000000000000     
  0.500000000000000     
  0.500000000000000     
  0.500000000000000     
  0.500000000000000     
  0.500000000000000     
  0.500000000000000     
  0.500000000000000     
  0.500000000000000     
  0.500000000000000     
  0.500000000000000     
  0.500000000000000     
  0.500000000000000     
  0.500000000000000     
  0.500000000000000     
  0.500000000000000     
  0.500000000000000     
  0.500000000000000     
  0.500000000000000     
  0.500000000000000     
  0.500000000000000     
  0.500000000000000     
  0.500000000000000     
  0.500000000000000     
  0.500000000000000     
  0.500000000000000     
  0.500000000000000     
  0.500000000000000     
  0.500000000000000     
  0.500000000000000     
  0.500000000000000     
  0.500000000000000     
  0.500000000000000     
  0.500000000000000     
  0.500000000000000     
  0.500000000000000     
  0.500000000000000     
  0.500000000000000     
  0.500000000000000     
  0.500000000000000     
  0.500000000000000     
  0.500000000000000     
  0.500000000000000     
  0.500000000000000     
  0.500000000000000     
  0.500000000000000     
  0.500000000000000     
  0.500000000000000     
  0.500000000000000     
  0.500000000000000     
  0.500000000000000     
  0.500000000000000     
  0.500000000000000     
  0.500000000000000     
  0.500000000000000     
  0.500000000000000     
  0.500000000000000     
  0.500000000000000     
  0.500000000000000     
  0.500000000000000     
  0.500000000000000     
  0.500000000000000     
  0.500000000000000     
  0.500000000000000     
  0.500000000000000     
  0.500000000000000     
  0.500000000000000     
  0.500000000000000     
  0.500000000000000     
  0.500000000000000     
  0.500000000000000     
  0.500000000000000     
  0.500000000000000     
  0.500000000000000     
  0.500000000000000     
  0.500000000000000     
  0.500000000000000     
  0.500000000000000     
  0.500000000000000     
  0.500000000000000     
  0.500000000000000     
  0.500000000000000     
  0.500000000000000     
  0.500000000000000     
  0.500000000000000     
  0.500000000000000     
  0.500000000000000     
  0.500000000000000     
  0.500000000000000     
  0.500000000000000     
  0.500000000000000     
  0.500000000000000     
  0.500000000000000     
  0.500000000000000     
  0.500000000000000     
  0.500000000000000     
  0.500000000000000     
  0.500000000000000     
  0.500000000000000     
  0.500000000000000     
  0.500000000000000     
  0.500000000000000     
  0.500000000000000     
  0.500000000000000     
  0.500000000000000     
  0.500000000000000     
  0.500000000000000     
  0.500000000000000     
  0.500000000000000     
  0.500000000000000     
  0.500000000000000     
  0.500000000000000     
  0.500000000000000     
  0.500000000000000     
  0.500000000000000     
  0.500000000000000     
  0.500000000000000     
  0.500000000000000     
  0.500000000000000     
  0.500000000000000     
  0.500000000000000     
  0.500000000000000     
  0.500000000000000     
  0.500000000000000     
  0.500000000000000     
  0.500000000000000     
  0.500000000000000     
  0.500000000000000     
  0.500000000000000     
  0.500000000000000     
  0.500000000000000     
  0.500000000000000     
  0.500000000000000     
  0.500000000000000     
  0.500000000000000     
  0.500000000000000     
  0.500000000000000     
  0.500000000000000     
  0.500000000000000     
  0.500000000000000     
  0.500000000000000     
  0.500000000000000     
  0.500000000000000     
  0.500000000000000     
  0.500000000000000     
  0.500000000000000     
  0.500000000000000     
  0.500000000000000     
  0.500000000000000     
  0.500000000000000     
  0.500000000000000     
  0.500000000000000     
  0.500000000000000     
  0.500000000000000     
  0.500000000000000     
  0.500000000000000     
  0.500000000000000     
  0.500000000000000     
  0.500000000000000     
  0.500000000000000     
  0.500000000000000     
  0.500000000000000     
  0.500000000000000     
  0.500000000000000     
  0.500000000000000     
  0.500000000000000     
  0.500000000000000     
  0.500000000000000     
  0.500000000000000     
  0.500000000000000     
  0.500000000000000     
  0.500000000000000     
  0.500000000000000     
  0.500000000000000     
  0.500000000000000     
  0.500000000000000     
  0.500000000000000     
  0.500000000000000     
  0.500000000000000     
  0.500000000000000     
  0.500000000000000     
  0.500000000000000     
  0.500000000000000     
  0.500000000000000     
  0.500000000000000     
  0.500000000000000     
  0.500000000000000     
  0.500000000000000     
  0.500000000000000     
  0.500000000000000     
  0.500000000000000     
  0.500000000000000     
  0.500000000000000     
  0.500000000000000     
  0.500000000000000     
  0.500000000000000     
  0.500000000000000     
  0.500000000000000     
  0.500000000000000     
  0.500000000000000     
  0.500000000000000     
  0.500000000000000     
  0.500000000000000     
  0.500000000000000     
  0.500000000000000     
  0.500000000000000     
  0.500000000000000     
  0.500000000000000     
  0.500000000000000     
  0.500000000000000     
  0.500000000000000     
  0.500000000000000     
  0.500000000000000     
  0.500000000000000     
  0.500000000000000     
  0.500000000000000     
  0.500000000000000     
  0.500000000000000     
  0.500000000000000     
  0.500000000000000     
  0.500000000000000     
  0.500000000000000     
  0.500000000000000     
  0.500000000000000     
  0.500000000000000     
  0.500000000000000     
  0.500000000000000     
  0.500000000000000     
  0.500000000000000     
  0.500000000000000     
  0.500000000000000     
  0.500000000000000     
  0.500000000000000     
  0.500000000000000     
  0.500000000000000     
  0.500000000000000     
  0.500000000000000     
  0.500000000000000     
  0.500000000000000     
  0.500000000000000     
  0.500000000000000     
  0.500000000000000     
  0.500000000000000     
  0.500000000000000     
  0.500000000000000     
  0.500000000000000     
  0.500000000000000     
  0.500000000000000     
  0.500000000000000     
  0.500000000000000     
  0.500000000000000     
  0.500000000000000     
  0.500000000000000     
  0.500000000000000     
  0.500000000000000     
  0.500000000000000     
  0.500000000000000     
  0.500000000000000     
  0.500000000000000     
  0.500000000000000     
  0.500000000000000     
  0.500000000000000     
  0.500000000000000     
  0.500000000000000     
  0.500000000000000     
  0.500000000000000     
  0.500000000000000     
  0.500000000000000     
  0.500000000000000     
  0.500000000000000     
  0.500000000000000     
  0.500000000000000     
  0.500000000000000     
  0.500000000000000     
  0.500000000000000     
  0.500000000000000     
  0.500000000000000     
  0.500000000000000     
  0.500000000000000     
  0.500000000000000     
  0.500000000000000     
  0.500000000000000     
  0.500000000000000     
  0.500000000000000     
  0.500000000000000     
  0.500000000000000     
  0.500000000000000     
  0.500000000000000     
  0.500000000000000     
  0.500000000000000     
  0.500000000000000     
  0.500000000000000     
  0.500000000000000     
  0.500000000000000     
  0.500000000000000     
  0.500000000000000     
  0.500000000000000     
  0.500000000000000     
  0.500000000000000     
  0.500000000000000     
  0.500000000000000     
  0.500000000000000     
  0.500000000000000     
  0.500000000000000     
  0.500000000000000     
  0.500000000000000     
  0.500000000000000     
  0.500000000000000     
  0.500000000000000     
  0.500000000000000     
  0.500000000000000     
  0.500000000000000     
  0.500000000000000     
  0.500000000000000     
  0.500000000000000     
  0.500000000000000     
  0.500000000000000     
  0.500000000000000     
  0.500000000000000     
  0.500000000000000     
  0.500000000000000     
  0.500000000000000     
  0.500000000000000     
  0.500000000000000     
  0.500000000000000     
  0.500000000000000     
  0.500000000000000     
  0.500000000000000     
  0.500000000000000     
  0.500000000000000     
  0.500000000000000     
  0.500000000000000     
  0.500000000000000     
  0.500000000000000     
  0.500000000000000     
  0.500000000000000     
  0.500000000000000     
  0.500000000000000     
  0.500000000000000     
  0.500000000000000     
  0.500000000000000     
  0.500000000000000     
  0.500000000000000     
  0.500000000000000     
  0.500000000000000     
  0.500000000000000     
  0.500000000000000     
  0.500000000000000     
  0.500000000000000     
  0.500000000000000     
  0.500000000000000     
  0.500000000000000     
  0.500000000000000     
  0.500000000000000     
  0.500000000000000     
  0.500000000000000     
  0.500000000000000     
  0.500000000000000     
  0.500000000000000     
  0.500000000000000     
  0.500000000000000     
  0.500000000000000     
  0.500000000000000     
  0.500000000000000     
  0.500000000000000     
  0.500000000000000     
  0.500000000000000     
  0.500000000000000     
  0.500000000000000     
  0.500000000000000     
  0.500000000000000     
  0.500000000000000     
  0.500000000000000     
  0.500000000000000     
  0.500000000000000     
  0.500000000000000     
  0.500000000000000     
  0.500000000000000     
  0.500000000000000     
  0.500000000000000     
  0.500000000000000     
  0.500000000000000     
  0.500000000000000     
  0.500000000000000     
  0.500000000000000     
  0.500000000000000     
  0.500000000000000     
  0.500000000000000     
  0.500000000000000     
  0.500000000000000     
  0.500000000000000     
  0.500000000000000     
  0.500000000000000     
  0.500000000000000     
  0.500000000000000     
  0.500000000000000     
  0.500000000000000     
  0.500000000000000     
  0.500000000000000     
  0.500000000000000     
  0.500000000000000     
  0.500000000000000     
  0.500000000000000     
  0.500000000000000     
  0.500000000000000     
  0.500000000000000     
  0.500000000000000     
  0.500000000000000     
  0.500000000000000     
  0.500000000000000     
  0.500000000000000     
  0.500000000000000     
  0.500000000000000     
  0.500000000000000     
  0.500000000000000     
  0.500000000000000     
  0.500000000000000     
  0.500000000000000     
  0.500000000000000     
  0.500000000000000     
  0.500000000000000     
  0.500000000000000     
  0.500000000000000     
  0.500000000000000     
  0.500000000000000     
  0.500000000000000     
  0.500000000000000     
  0.500000000000000     
  0.500000000000000     
  0.500000000000000     
  0.500000000000000     
  0.500000000000000     
  0.500000000000000     
  0.500000000000000     
  0.500000000000000     
  0.500000000000000     
  0.500000000000000     
  0.500000000000000     
  0.500000000000000     
  0.500000000000000     
  0.500000000000000     
  0.500000000000000     
  0.500000000000000     
  0.500000000000000     
  0.500000000000000     
  0.500000000000000     
  0.500000000000000     
  0.500000000000000     
  0.500000000000000     
  0.500000000000000     
  0.500000000000000     
  0.500000000000000     
  0.500000000000000     
  0.500000000000000     
  0.500000000000000     
  0.500000000000000     
  0.500000000000000     
  0.500000000000000     
  0.500000000000000     
  0.500000000000000     
  0.500000000000000     
  0.500000000000000     
  0.500000000000000     
  0.500000000000000     
  0.500000000000000     
  0.500000000000000     
  0.500000000000000     
  0.500000000000000     
  0.500000000000000     
  0.500000000000000     
  0.500000000000000     
  0.500000000000000     
  0.500000000000000     
  0.500000000000000     
  0.500000000000000     
  0.500000000000000     
  0.500000000000000     
  0.500000000000000     
  0.500000000000000     
  0.500000000000000     
  0.500000000000000     
  0.500000000000000     
  0.500000000000000     
  0.500000000000000     
  0.500000000000000     
  0.500000000000000     
  0.500000000000000     
  0.500000000000000     
  0.500000000000000     
  0.500000000000000     
  0.500000000000000     
  0.500000000000000     
  0.500000000000000     
  0.500000000000000     
  0.500000000000000     
  0.500000000000000     
  0.500000000000000     
  0.500000000000000     
  0.500000000000000     
  0.500000000000000     
  0.500000000000000     
  0.500000000000000     
  0.500000000000000     
  0.500000000000000     
  0.500000000000000     
  0.500000000000000     
  0.500000000000000     
  0.500000000000000     
  0.500000000000000     
  0.500000000000000     
  0.500000000000000     
  0.500000000000000     
  0.500000000000000     
  0.500000000000000     
  0.500000000000000     
  0.500000000000000     
  0.500000000000000     
  0.500000000000000     
  0.500000000000000     
  0.500000000000000     
  0.500000000000000     
  0.500000000000000     
  0.500000000000000     
  0.500000000000000     
  0.500000000000000     
  0.500000000000000     
  0.500000000000000     
  0.500000000000000     
  0.500000000000000     
  0.500000000000000     
  0.500000000000000     
  0.500000000000000     
  0.500000000000000     
  0.500000000000000     
  0.500000000000000     
  0.500000000000000     
  0.500000000000000     
  0.500000000000000     
  0.500000000000000     
  0.500000000000000     
  0.500000000000000     
  0.500000000000000     
  0.500000000000000     
  0.500000000000000     
  0.500000000000000     
  0.500000000000000     
  0.500000000000000     
  0.500000000000000     
  0.500000000000000     
  0.500000000000000     
  0.500000000000000     
  0.500000000000000     
  0.500000000000000     
  0.500000000000000     
  0.500000000000000     
  0.500000000000000     
  0.500000000000000     
  0.500000000000000     
  0.500000000000000     
  0.500000000000000     
  0.500000000000000     
  0.500000000000000     
  0.500000000000000     
  0.500000000000000     
  0.500000000000000     
  0.500000000000000     
  0.500000000000000     
  0.500000000000000     
  0.500000000000000     
  0.500000000000000     
  0.500000000000000     
  0.500000000000000     
  0.500000000000000     
  0.500000000000000     
  0.500000000000000     
  0.500000000000000     
  0.500000000000000     
  0.500000000000000     
  0.500000000000000     
  0.500000000000000     
  0.500000000000000     
  0.500000000000000     
  0.500000000000000     
  0.500000000000000     
  0.500000000000000     
  0.500000000000000     
  0.500000000000000     
  0.500000000000000     
  0.500000000000000     
  0.500000000000000     
  0.500000000000000     
  0.500000000000000     
  0.500000000000000     
  0.500000000000000     
  0.500000000000000     
  0.500000000000000     
  0.500000000000000     
  0.500000000000000     
  0.500000000000000     
  0.500000000000000     
  0.500000000000000     
  0.500000000000000     
  0.500000000000000     
  0.500000000000000     
  0.500000000000000     
  0.500000000000000     
  0.500000000000000     
  0.500000000000000     
  0.500000000000000     
  0.500000000000000     
  0.500000000000000     
  0.500000000000000     
  0.500000000000000     
  0.500000000000000     
  0.500000000000000     
  0.500000000000000     
  0.500000000000000     
  0.500000000000000     
  0.500000000000000     
  0.500000000000000     
  0.500000000000000     
  0.500000000000000     
  0.500000000000000     
  0.500000000000000     
  0.500000000000000     
  0.500000000000000     
  0.500000000000000     
  0.500000000000000     
  0.500000000000000     
  0.500000000000000     
  0.500000000000000     
  0.500000000000000     
  0.500000000000000     
  0.500000000000000     
  0.500000000000000     
  0.500000000000000     
  0.500000000000000     
  0.500000000000000     
  0.500000000000000     
  0.500000000000000     
  0.500000000000000     
  0.500000000000000     
  0.500000000000000     
  0.500000000000000     
  0.500000000000000     
  0.500000000000000     
  0.500000000000000     
  0.500000000000000     
  0.500000000000000     
  0.500000000000000     
  0.500000000000000     
  0.500000000000000     
  0.500000000000000     
  0.500000000000000     
  0.500000000000000     
  0.500000000000000     
  0.500000000000000     
  0.500000000000000     
  0.500000000000000     
  0.500000000000000     
  0.500000000000000     
  0.500000000000000     
  0.500000000000000     
  0.500000000000000     
  0.500000000000000     
  0.500000000000000     
  0.500000000000000     
  0.500000000000000     
  0.500000000000000     
  0.500000000000000     
  0.500000000000000     
  0.500000000000000     
  0.500000000000000     
  0.500000000000000     
  0.500000000000000     
  0.500000000000000     
  0.500000000000000     
  0.500000000000000     
  0.500000000000000     
  0.500000000000000     
  0.500000000000000     
  0.500000000000000     
  0.500000000000000     
  0.500000000000000     
  0.500000000000000     
  0.500000000000000     
  0.500000000000000     
  0.500000000000000     
  0.500000000000000     
  0.500000000000000     
  0.500000000000000     
  0.500000000000000     
  0.500000000000000     
  0.500000000000000     
  0.500000000000000     
  0.500000000000000     
  0.500000000000000     
  0.500000000000000     
  0.500000000000000     
  0.500000000000000     
  0.500000000000000     
  0.500000000000000     
  0.500000000000000     
  0.500000000000000     
  0.500000000000000     
  0.500000000000000     
  0.500000000000000     
  0.500000000000000     
  0.500000000000000     
  0.500000000000000     
  0.500000000000000     
  0.500000000000000     
  0.500000000000000     
  0.500000000000000     
  0.500000000000000     
  0.500000000000000     
  0.500000000000000     
  0.500000000000000     
  0.500000000000000     
  0.500000000000000     
  0.500000000000000     
  0.500000000000000     
  0.500000000000000     
  0.500000000000000     
  0.500000000000000     
  0.500000000000000     
  0.500000000000000     
  0.500000000000000     
  0.500000000000000     
  0.500000000000000     
  0.500000000000000     
  0.500000000000000     
  0.500000000000000     
  0.500000000000000     
  0.500000000000000     
  0.500000000000000     
  0.500000000000000     
  0.500000000000000     
  0.500000000000000     
  0.500000000000000     
  0.500000000000000     
  0.500000000000000     
  0.500000000000000     
  0.500000000000000     
  0.500000000000000     
  0.500000000000000     
  0.500000000000000     
  0.500000000000000     
  0.500000000000000     
  0.500000000000000     
  0.500000000000000     
  0.500000000000000     
  0.500000000000000     
  0.500000000000000     
  0.500000000000000     
  0.500000000000000     
  0.500000000000000     
  0.500000000000000     
  0.500000000000000     
  0.500000000000000     
  0.500000000000000     
  0.500000000000000     
  0.500000000000000     
  0.500000000000000     
  0.500000000000000     
  0.500000000000000     
  0.500000000000000     