# vtk DataFile Version 5.1
Data.vtk
ASCII
DATASET UNSTRUCTURED_GRID
 
POINTS 2000 float
   -8.26  -10.69   -0.28
    4.46  -13.80    1.57
   -6.77  -10.18    3.08
   -4.12  -12.30   -1.60
    2.88  -12.56    6.13
   -4.26   -9.33   -8.33
   -1.62  -14.41   -8.82
   -3.65   -9.89   -6.80
    2.12  -14.34   -5.61
   -1.08  -13.67   -0.70
    2.76  -11.31   -1.80
   -6.40   -9.05   -7.31
   -4.59  -12.90   -0.79
   -7.66  -11.27    1.74
    3.36  -12.09   -1.61
    0.87  -14.47    0.92
   -0.81  -13.68    5.64
   -8.09   -9.69    5.84
   -7.06  -12.66    7.82
   -6.50  -10.93   -3.46
   -8.85   -8.83   -1.01
   -9.48  -10.89    6.18
   -0.04  -10.78   -8.54
  -10.71   -8.81   -6.15
   -2.71  -13.23    0.30
    6.46  -12.98   -7.11
   -7.06   -9.88    5.67
   -1.29  -11.83    8.48
    5.68  -12.01    0.00
    1.33  -10.89    2.85
   -7.23   -8.96   -2.37
    5.81  -13.28   -1.32
    5.62  -13.37    7.73
   -5.54  -12.55   -3.17
   -4.70  -10.75   -3.64
   -8.10  -10.12    6.75
    0.63  -11.29    6.88
    0.35  -11.93    5.02
    4.77  -12.72    1.06
   -5.62  -11.71    2.22
   -1.53  -14.42    2.92
   -4.13  -10.16   -1.08
    2.56  -11.22   -5.33
   -6.73  -10.74    1.79
    0.50  -10.99   -5.40
   -0.74  -14.48    9.49
   -1.65  -14.41    4.51
   -3.29  -12.25   -4.76
   -3.73  -14.01    5.97
   -8.20   -9.92   -8.67
   -6.98  -10.63   -6.73
   -1.58  -10.85    9.50
    1.58  -11.89    6.61
   -2.94  -13.40    2.14
    3.84  -13.27    4.35
    3.09  -14.17    0.38
    4.68  -13.73   -7.88
    6.35  -11.43    0.80
   -0.09  -10.34   -0.25
    4.79  -12.62   -8.71
    4.60  -12.85   -1.77
    5.43  -12.61   -4.09
    0.18  -13.02    7.00
   -9.32  -11.11    2.87
   -9.93  -10.56    2.30
   -0.55  -13.58    0.52
   -2.58  -10.22   -0.51
   -3.29  -13.36    4.19
   -5.90  -11.38   -0.63
   -7.26  -11.47   -4.67
    5.17  -12.17    5.61
  -11.61   -8.00   -6.33
   -7.68  -10.13   -2.67
    5.27  -12.75    4.18
    0.17  -14.50    5.30
   -3.40   -9.91   -4.07
    4.68  -13.72    7.80
   -4.21  -13.87   -8.25
   -1.07  -13.67    2.20
    1.13  -14.46   -2.97
   -3.25  -14.13    9.49
    2.94  -14.20    6.68
   -3.35  -12.57   -1.02
    0.00  -13.86   -9.37
   -9.40   -8.41   -7.42
   -3.08  -12.50   -6.19
   -1.07  -10.48   -0.34
    2.08  -14.35   -7.13
    6.03  -12.30    1.18
   -3.41  -13.19    8.21
   -8.76  -10.62    0.58
   -3.39  -12.63   -8.54
    5.48  -11.54   -2.63
    3.21  -10.91    4.15
   -7.07  -11.76    3.84
    6.14  -12.49   -3.20
    1.43  -12.00    1.21
    3.61  -12.43    3.86
   -8.69  -11.61   -0.32
    6.37  -11.99   -2.33
   -5.72  -10.44    2.81
    2.68  -14.12   -4.50
    5.41  -12.38    1.98
    4.63  -13.33    6.88
    4.46  -11.24    0.76
    3.16  -13.66   -8.61
   -9.20   -9.23    5.90
    2.51  -11.89   -3.56
   -5.25   -9.45    5.19
   -0.51  -12.83    3.13
    2.25  -10.85    4.96
    1.07  -13.76   -1.82
   -5.27  -13.51   -3.76
    0.42  -13.75   -7.92
   -8.64  -11.38    3.55
   -5.04  -12.61   -9.20
    1.00  -10.27   -0.37
    3.49  -11.75   -3.46
  -10.72   -9.64    6.58
   -1.00  -10.01    6.23
   -2.54  -14.28    8.49
    3.10  -10.51    5.60
   -1.52  -12.73    7.84
    4.67  -13.73    4.01
    4.72  -12.20    0.21
    0.94  -14.47   -5.58
   -5.78  -13.30   -7.13
   -4.07  -11.01   -0.03
   -8.47  -11.77   -9.39
   -2.68  -14.25   -9.47
   -5.13  -11.64   -3.57
    1.53  -12.66    2.75
    3.19  -13.40   -0.28
    5.47  -13.42    0.99
   -0.90  -10.41   -8.14
   -3.98  -11.49    6.66
  -10.50   -7.57   -3.99
  -11.96   -8.18   -4.24
    1.09  -13.15    9.50
  -10.97   -9.38    4.61
   -4.33  -12.81   -3.44
   -4.21   -9.22    0.66
    2.73  -13.15   -3.60
   -0.31  -10.69    5.95
    4.18  -11.15    4.28
   -8.89   -9.51    6.82
   -0.64  -11.75    5.12
    2.68  -13.18   -9.49
   -7.75  -11.32   -6.18
   -6.84   -9.94   -7.51
   -4.47  -12.96    5.91
    5.90  -12.27   -1.45
    2.90  -11.64    3.53
    4.51  -12.78   -4.43
   -3.14  -11.56   -4.05
   -1.16   -9.74    0.45
   -2.12  -11.12    1.57
    3.96  -13.95    8.45
    0.55  -10.95    5.04
   -3.24  -14.13    3.56
    2.04  -12.00   -5.00
    0.68  -14.48    8.59
   -4.86  -12.70   -8.20
   -2.00  -14.36    0.81
   -1.47  -11.80   -8.87
    1.81  -13.56    1.66
   -4.63  -11.12   -0.84
  -11.35   -8.98   -7.93
   -0.38  -14.49   -1.70
    1.01  -12.66   -7.33
   -8.47  -11.75   -1.29
    2.48  -12.17   -7.96
   -1.09  -12.77    8.74
    6.12  -13.15   -5.03
    4.58  -12.25    3.65
    4.84  -13.67   -0.19
   -2.04  -10.58    7.92
   -0.79  -10.54    7.08
    6.33  -13.05   -4.02
   -1.70  -12.83    0.03
   -7.73   -8.87   -4.97
   -0.07  -14.50    1.25
   -2.96  -14.20   -0.75
   -2.26  -10.03   -8.94
   -6.30  -10.28    8.14
   -7.27  -12.50   -4.94
    3.63  -10.87   -2.39
  -11.91   -7.32   -3.74
   -3.57  -10.02    4.76
   -5.37   -9.51   -0.26
    0.13  -12.89   -2.17
   -5.67  -10.36    5.45
   -9.19  -11.22    7.90
   -4.07   -9.02   -7.30
    3.11  -14.15   -5.82
   -6.95  -11.79    7.34
    1.57  -11.32   -8.48
   -8.40  -10.46   -5.44
   -1.13  -10.89   -1.26
   -4.37  -13.73   -3.05
   -2.55  -13.11    6.46
   -1.75  -14.39    9.50
   -3.69  -13.03   -4.29
    1.08  -12.90   -1.31
   -4.71  -10.61    1.42
    0.44  -11.40   -4.50
   -0.65  -14.48   -8.53
   -1.75  -10.80    6.99
    2.97  -14.19   -9.43
   -4.03  -11.87   -8.61
    2.57  -13.27    6.76
   -3.59  -10.96   -8.46
    3.42  -14.09    3.92
   -4.31  -11.34   -1.77
    5.86  -12.19   -7.25
   -1.32  -14.44   -0.10
    2.30  -14.32    1.23
   -2.30  -11.65    3.69
    0.88  -11.97   -6.61
    1.73  -10.62   -1.00
    5.81  -12.48    9.20
   -5.20  -12.70    7.35
   -0.19  -11.45   -6.70
    1.98  -13.18   -1.90
   -7.13  -11.80    8.76
   -0.51  -12.47    9.50
    1.73  -10.72   -4.18
   -6.80  -12.81   -3.26
    1.96  -11.21    7.25
   -4.68   -9.97   -9.50
   -5.24   -9.09   -3.98
   -2.34  -13.09    4.60
   -5.53  -10.38   -5.49
    1.91  -12.65    7.18
   -6.97  -10.03   -4.66
   -1.70   -9.82   -0.77
    6.91  -12.75    1.32
    3.16  -14.15    1.71
   -5.89  -11.36    3.16
   -1.00  -11.39   -5.73
    2.67  -12.87    4.15
    0.26  -14.49    9.50
   -5.40   -9.23   -7.66
   -6.19  -10.92   -9.50
    0.75  -13.90    3.72
    2.93  -11.15    0.07
   -5.44  -11.56   -9.35
    0.24  -14.50   -2.48
    4.02  -11.42    9.08
   -4.88  -10.84    8.29
    2.09  -12.20   -1.61
   -1.76   -9.92   -7.20
   -0.23  -11.54   -7.91
  -11.47   -7.71    5.71
   -3.26  -14.08    6.87
   -2.59  -12.60    3.61
    0.39  -11.96   -9.50
  -10.23   -9.35    3.95
    0.57  -11.96   -5.66
   -5.80  -12.53   -2.12
   -4.07  -13.91   -9.50
    0.78  -13.38   -8.78
    2.44  -10.83    2.91
    6.19  -13.11    8.52
   -0.22  -10.37   -4.27
  -11.37   -8.99   -4.30
   -9.76  -10.72    4.53
    7.31  -12.52    6.30
   -5.02  -10.31   -8.30
   -1.67  -11.19   -8.10
   -3.94  -13.28   -1.50
    2.66  -12.58   -0.03
  -10.70   -9.74   -7.91
   -8.13  -12.01   -8.38
   -0.92  -13.47   -9.45
   -5.55  -11.40    6.18
   -2.24  -13.73    2.79
   -2.75  -13.40    8.92
   -1.61  -13.78   -7.97
   -0.48  -11.29   -0.62
   -0.16  -11.47    4.29
  -10.88   -9.55    8.36
   -5.89  -12.39   -5.35
    2.61  -12.39    9.50
    4.76  -11.51   -0.51
    3.28  -14.12    5.69
    2.19  -13.42   -0.33
    0.51  -12.84    7.92
    5.22  -13.53   -8.70
   -2.41  -14.26    6.33
   -4.34  -11.36    2.46
    5.43  -12.47    7.33
    4.39  -12.85   -2.75
    1.09  -13.62   -7.09
   -0.78  -13.72    8.85
   -6.75  -11.73   -1.19
  -12.46   -7.17   -6.55
   -0.13  -13.59    7.75
   -4.87  -10.42    4.84
   -8.65   -8.49   -5.05
   -0.22  -11.79    0.23
  -11.48   -8.86    6.03
    1.15  -13.53    2.42
    2.71  -14.22   -1.84
   -3.62  -14.04   -0.02
   -6.66  -10.83    7.39
    1.17  -14.45    6.67
  -11.80   -8.42   -5.20
    3.34  -12.48   -2.78
    3.63  -11.94    8.19
   -3.16  -12.25   -7.16
   -0.56  -13.70    6.65
    5.97  -13.20   -0.29
    5.24  -10.69   -0.96
   -2.78  -13.30   -8.12
   -1.72  -14.40   -4.46
   -3.96  -10.98   -9.50
   -0.36  -14.50   -3.29
    1.51  -11.00    1.14
    1.90  -11.98   -7.01
   -2.52  -11.60   -6.60
    5.32  -13.49   -6.15
   -1.93  -12.60   -0.92
   -4.14  -11.85   -3.28
    4.31  -12.91   -5.59
   -1.30  -14.44   -1.30
    2.04  -11.74    2.93
    0.12  -14.50    6.65
   -3.03  -11.11   -5.12
   -1.93  -12.11    1.58
    3.33  -14.11   -2.67
   -3.63  -11.03   -1.10
   -6.93   -9.25    0.59
    1.27  -12.60   -2.43
   -4.12  -11.49    8.30
    1.90  -10.81   -2.00
    4.52  -12.24    8.53
   -3.87   -9.92    1.48
    3.48  -11.53   -0.79
   -4.61  -13.75   -2.08
    4.12  -13.90   -5.89
   -5.14  -13.56   -9.50
   -6.01  -13.18    5.68
    3.28  -12.81    5.04
   -4.49  -11.83   -9.50
    0.08  -12.23   -7.26
    2.12  -14.34    7.46
    6.46  -12.98   -2.31
   -2.09  -12.35   -3.50
   -4.49   -9.51    4.50
   -1.75  -10.00   -3.37
   -6.58   -8.73   -8.98
   -0.80   -9.98   -1.51
    0.35  -10.78    2.66
   -0.26  -13.33   -5.94
    5.91  -13.24    6.72
   -4.07  -13.91   -3.99
   -9.26   -9.93    8.65
    5.17  -13.19    6.04
    0.74  -10.54   -4.09
   -6.17  -11.44    8.78
   -8.02   -8.93    9.34
    2.50  -13.72   -6.48
   -5.07   -9.16    9.20
  -10.64   -9.84    9.50
    7.17  -11.99    0.72
   -0.44  -10.78    4.96
   -6.26  -12.18   -7.30
    3.42  -14.09   -6.79
    3.80  -13.99    9.49
   -6.97  -11.87   -6.57
    0.22  -10.92   -9.50
   -6.17  -13.12   -3.97
   -5.31  -10.07    8.77
    2.74  -13.30   -2.60
   -0.23   -9.93    1.95
   -2.88  -14.19    5.45
    1.93  -14.37   -3.72
    0.45  -13.67   -5.22
   -2.82   -9.96   -6.26
   -4.47  -11.57   -7.77
    3.47  -14.08   -3.89
    1.95  -13.50   -4.21
   -3.63  -13.05    7.24
    4.55  -11.29   -3.97
   -0.61  -11.83   -9.50
    0.96  -13.49   -2.78
   -9.82  -10.58   -0.23
    1.30  -12.77   -4.43
    1.34  -12.98   -9.50
  -11.61   -7.58    8.99
   -9.22  -11.16    5.25
    5.92  -13.18   -7.94
   -1.89  -14.38    5.48
    3.07  -11.49    7.13
   -6.61  -12.91    3.60
[...]
POINT_DATA 2000
SCALARS radius float
LOOKUP_TABLE default
  0.500000000000000     
  0.500000000000000     
  0.500000000000000     
  0.500000000000000     
  0.500000000000000     
  0.500000000000000     
  0.500000000000000     
  0.500000000000000     
  0.500000000000000     
  0.500000000000000     
  0.500000000000000     
  0.500000000000000     
  0.500000000000000     
  0.500000000000000     
  0.500000000000000     
  0.500000000000000     
  0.500000000000000     
  0.500000000000000     
  0.500000000000000     
  0.500000000000000     
  0.500000000000000     
  0.500000000000000     
  0.500000000000000     
  0.500000000000000     
  0.500000000000000     
  0.500000000000000     
  0.500000000000000     
  0.500000000000000     
  0.500000000000000     
  0.500000000000000     
  0.500000000000000     
  0.500000000000000     
  0.500000000000000     
  0.500000000000000     
  0.500000000000000     
  0.500000000000000     
  0.500000000000000     
  0.500000000000000     
  0.500000000000000     
  0.500000000000000     
  0.500000000000000     
  0.500000000000000     
  0.500000000000000     
  0.500000000000000     
  0.500000000000000     
  0.500000000000000     
  0.500000000000000     
  0.500000000000000     
  0.500000000000000     
  0.500000000000000     
  0.500000000000000     
  0.500000000000000     
  0.500000000000000     
  0.500000000000000     
  0.500000000000000     
  0.500000000000000     
  0.500000000000000     
  0.500000000000000     
  0.500000000000000     
  0.500000000000000     
  0.500000000000000     
  0.500000000000000     
  0.500000000000000     
  0.500000000000000     
  0.500000000000000     
  0.500000000000000     
  0.500000000000000     
  0.500000000000000     
  0.500000000000000     
  0.500000000000000     
  0.500000000000000     
  0.500000000000000     
  0.500000000000000     
  0.500000000000000     
  0.500000000000000     
  0.500000000000000     
  0.500000000000000     
  0.500000000000000     
  0.500000000000000     
  0.500000000000000     
  0.500000000000000     
  0.500000000000000     
  0.500000000000000     
  0.500000000000000     
  0.500000000000000     
  0.500000000000000     
  0.500000000000000     
  0.500000000000000     
  0.500000000000000     
  0.500000000000000     
  0.500000000000000     
  0.500000000000000     
  0.500000000000000     
  0.500000000000000     
  0.500000000000000     
  0.500000000000000     
  0.500000000000000     
  0.500000000000000     
  0.500000000000000     
  0.500000000000000     
  0.500000000000000     
  0.500000000000000     
  0.500000000000000     
  0.500000000000000     
  0.500000000000000     
  0.500000000000000     
  0.500000000000000     
  0.500000000000000     
  0.500000000000000     
  0.500000000000000     
  0.500000000000000     
  0.500000000000000     
  0.500000000000000     
  0.500000000000000     
  0.500000000000000     
  0.500000000000000     
  0.500000000000000     
  0.500000000000000     
  0.500000000000000     
  0.500000000000000     
  0.500000000000000     
  0.500000000000000     
  0.500000000000000     
  0.500000000000000     
  0.500000000000000     
  0.500000000000000     
  0.500000000000000     
  0.500000000000000     
  0.500000000000000     
  0.500000000000000     
  0.500000000000000     
  0.500000000000000     
  0.500000000000000     
  0.500000000000000     
  0.500000000000000     
  0.500000000000000     
  0.500000000000000     
  0.500000000000000     
  0.500000000000000     
  0.500000000000000     
  0.500000000000000     
  0.500000000000000     
  0.500000000000000     
  0.500000000000000     
  0.500000000000000     
  0.500000000000000     
  0.500000000000000     
  0.500000000000000     
  0.500000000000000     
  0.500000000000000     
  0.500000000000000     
  0.500000000000000     
  0.500000000000000     
  0.500000000000000     
  0.500000000000000     
  0.500000000000000     
  0.500000000000000     
  0.500000000000000     
  0.500000000000000     
  0.500000000000000     
  0.500000000000000     
  0.500000000000000     
  0.500000000000000     
  0.500000000000000     
  0.500000000000000     
  0.500000000000000     
  0.500000000000000     
  0.500000000000000     
  0.500000000000000     
  0.500000000000000     
  0.500000000000000     
  0.500000000000000     
  0.500000000000000     
  0.500000000000000     
  0.500000000000000     
  0.500000000000000     
  0.500000000000000     
  0.500000000000000     
  0.500000000000000     
  0.500000000000000     
  0.500000000000000     
  0.500000000000000     
  0.500000000000000     
  0.500000000000000     
  0.500000000000000     
  0.500000000000000     
  0.500000000000000     
  0.500000000000000     
  0.500000000000000     
  0.500000000000000     
  0.500000000000000     
  0.500000000000000     
  0.500000000000000     
  0.500000000000000     
  0.500000000000000     
  0.500000000000000     
  0.500000000000000     
  0.500000000000000     
  0.500000000000000     
  0.500000000000000     
  0.500000000000000     
  0.500000000000000     
  0.500000000000000     
  0.500000000000000     
  0.500000000000000     
  0.500000000000000     
  0.500000000000000     
  0.500000000000000     
  0.500000000000000     
  0.500000000000000     
  0.500000000000000     
  0.500000000000000     
  0.500000000000000     
  0.500000000000000     
  0.500000000000000     
  0.500000000000000     
  0.500000000000000     
  0.500000000000000     
  0.500000000000000     
  0.500000000000000     
  0.500000000000000     
  0.500000000000000     
  0.500000000000000     
  0.500000000000000     
  0.500000000000000     
  0.500000000000000     
  0.500000000000000     
  0.500000000000000     
  0.500000000000000     
  0.500000000000000     
  0.500000000000000     
  0.500000000000000     
  0.500000000000000     
  0.500000000000000     
  0.500000000000000     
  0.500000000000000     
  0.500000000000000     
  0.500000000000000     
  0.500000000000000     
  0.500000000000000     
  0.500000000000000     
  0.500000000000000     
  0.500000000000000     
  0.500000000000000     
  0.500000000000000     
  0.500000000000000     
  0.500000000000000     
  0.500000000000000     
  0.500000000000000     
  0.500000000000000     
  0.500000000000000     
  0.500000000000000     
  0.500000000000000     
  0.500000000000000     
  0.500000000000000     
  0.500000000000000     
  0.500000000000000     
  0.500000000000000     
  0.500000000000000     
  0.500000000000000     
  0.500000000000000     
  0.500000000000000     
  0.500000000000000     
  0.500000000000000     
  0.500000000000000     
  0.500000000000000     
  0.500000000000000     
  0.500000000000000     
  0.500000000000000     
  0.500000000000000     
  0.500000000000000     
  0.500000000000000     
  0.500000000000000     
  0.500000000000000     
  0.500000000000000     
  0.500000000000000     
  0.500000000000000     
  0.500000000000000     
  0.500000000000000     
  0.500000000000000     
  0.500000000000000     
  0.500000000000000     
  0.500000000000000     
  0.500000000000000     
  0.500000000000000     
  0.500000000000000     
  0.500000000000000     
  0.500000000000000     
  0.500000000000000     
  0.500000000000000     
  0.500000000000000     
  0.500000000000000     
  0.500000000000000     
  0.500000000000000     
  0.500000000000000     
  0.500000000000000     
  0.500000000000000     
  0.500000000000000     
  0.500000000000000     
  0.500000000000000     
  0.500000000000000     
  0.500000000000000     
  0.500000000000000     
  0.500000000000000     
  0.500000000000000     
  0.500000000000000     
  0.500000000000000     
  0.500000000000000     
  0.500000000000000     
  0.500000000000000     
  0.500000000000000     
  0.500000000000000     
  0.500000000000000     
  0.500000000000000     
  0.500000000000000     
  0.500000000000000     
  0.500000000000000     
  0.500000000000000     
  0.500000000000000     
  0.500000000000000     
  0.500000000000000     
  0.500000000000000     
  0.500000000000000     
  0.500000000000000     
  0.500000000000000     
  0.500000000000000     
  0.500000000000000     
  0.500000000000000     
  0.500000000000000     
  0.500000000000000     
  0.500000000000000     
  0.500000000000000     
  0.500000000000000     
  0.500000000000000     
  0.500000000000000     
  0.500000000000000     
  0.500000000000000     
  0.500000000000000     
  0.500000000000000     
  0.500000000000000     
  0.500000000000000     
  0.500000000000000     
  0.500000000000000     
  0.500000000000000     
  0.500000000000000     
  0.500000000000000     
  0.500000000000000     
  0.500000000000000     
  0.500000000000000     
  0.500000000000000     
  0.500000000000000     
  0.500000000000000     
  0.500000000000000     
  0.500000000000000     
  0.500000000000000     
  0.500000000000000     
  0.500000000000000     
  0.500000000000000     
  0.500000000000000     
  0.500000000000000     
  0.500000000000000     
  0.500000000000000     
  0.500000000000000     
  0.500000000000000     
  0.500000000000000     
  0.500000000000000     
  0.500000000000000     
  0.500000000000000     
  0.500000000000000     
  0.500000000000000     
  0.500000000000000     
  0.500000000000000     
  0.500000000000000     
  0.500000000000000     
  0.500000000000000     
  0.500000000000000     
  0.500000000000000     
  0.500000000000000     
  0.500000000000000     
  0.500000000000000     
  0.500000000000000     
  0.500000000000000     
  0.500000000000000     
  0.500000000000000     
  0.500000000000000     
  0.500000000000000     
  0.500000000000000     
  0.500000000000000     
  0.500000000000000     
  0.500000000000000     
  0.500000000000000     
  0.500000000000000     
  0.500000000000000     
  0.500000000000000     
  0.500000000000000     
  0.500000000000000     
  0.500000000000000     
  0.500000000000000     
  0.500000000000000     
  0.500000000000000     
  0.500000000000000     
  0.500000000000000     
  0.500000000000000     
  0.500000000000000     
  0.500000000000000     
  0.500000000000000     
  0.500000000000000     
  0.500000000000000     
  0.500000000000000     
  0.500000000000000     
  0.500000000000000     
  0.500000000000000     
  0.500000000000000     
  0.500000000000000     
  0.500000000000000     
  0.500000000000000     
  0.500000000000000     
  0.500000000000000     
  0.500000000000000     
  0.500000000000000     
  0.500000000000000     
  0.500000000000000     
  0.500000000000000     
  0.500000000000000     
  0.500000000000000     
  0.500000000000000     
  0.500000000000000     
  0.500000000000000     
  0.500000000000000     
  0.500000000000000     
  0.500000000000000     
  0.500000000000000     
  0.500000000000000     
  0.500000000000000     
  0.500000000000000     
  0.500000000000000     
  0.500000000000000     
  0.500000000000000     
  0.500000000000000     
  0.500000000000000     
  0.500000000000000     
  0.500000000000000     
  0.500000000000000     
  0.500000000000000     
  0.500000000000000     
  0.500000000000000     
  0.500000000000000     
  0.500000000000000     
  0.500000000000000     
  0.500000000000000     
  0.500000000000000     
  0.500000000000000     
  0.500000000000000     
  0.500000000000000     
  0.500000000000000     
  0.500000000000000     
  0.500000000000000     
  0.500000000000000     
  0.500000000000000     
  0.500000000000000     
  0.500000000000000     
  0.500000000000000     
  0.500000000000000     
  0.500000000000000     
  0.500000000000000     
  0.500000000000000     
  0.500000000000000     
  0.500000000000000     
  0.500000000000000     
  0.500000000000000     
  0.500000000000000     
  0.500000000000000     
  0.500000000000000     
  0.500000000000000     
  0.500000000000000     
  0.500000000000000     
  0.500000000000000     
  0.500000000000000     
  0.500000000000000     
  0.500000000000000     
  0.500000000000000     
  0.500000000000000     
  0.500000000000000     
  0.500000000000000     
  0.500000000000000     
  0.500000000000000     
  0.500000000000000     
  0.500000000000000     
  0.500000000000000     
  0.500000000000000     
  0.500000000000000     
  0.500000000000000     
  0.500000000000000     
  0.500000000000000     
  0.500000000000000     
  0.500000000000000     
  0.500000000000000     
  0.500000000000000     
  0.500000000000000     
  0.500000000000000     
  0.500000000000000     
  0.500000000000000     
  0.500000000000000     
  0.500000000000000     
  0.500000000000000     
  0.500000000000000     
  0.500000000000000     
  0.500000000000000     
  0.500000000000000     
  0.500000000000000     
  0.500000000000000     
  0.500000000000000     
  0.500000000000000     
  0.500000000000000     
  0.500000000000000     
  0.500000000000000     
  0.500000000000000     
  0.500000000000000     
  0.500000000000000     
  0.500000000000000     
  0.500000000000000     
  0.500000000000000     
  0.500000000000000     
  0.500000000000000     
  0.500000000000000     
  0.500000000000000     
  0.500000000000000     
  0.500000000000000     
  0.500000000000000     
  0.500000000000000     
  0.500000000000000     
  0.500000000000000     
  0.500000000000000     
  0.500000000000000     
  0.500000000000000     
  0.500000000000000     
  0.500000000000000     
  0.500000000000000     
  0.500000000000000     
  0.500000000000000     
  0.500000000000000     
  0.500000000000000     
  0.500000000000000     
  0.500000000000000     
  0.500000000000000     
  0.500000000000000     
  0.500000000000000     
  0.500000000000000     
  0.500000000000000     
  0.500000000000000     
  0.500000000000000     
  0.500000000000000     
  0.500000000000000     
  0.500000000000000     
  0.500000000000000     
  0.500000000000000     
  0.500000000000000     
  0.500000000000000     
  0.500000000000000     
  0.500000000000000     
  0.500000000000000     
  0.500000000000000     
  0.500000000000000     
  0.500000000000000     
  0.500000000000000     
  0.500000000000000     
  0.500000000000000     
  0.500000000000000     
  0.500000000000000     
  0.500000000000000     
  0.500000000000000     
  0.500000000000000     
  0.500000000000000     
  0.500000000000000     
  0.500000000000000     
  0.500000000000000     
  0.500000000000000     
  0.500000000000000     
  0.500000000000000     
  0.500000000000000     
  0.500000000000000     
  0.500000000000000     
  0.500000000000000     
  0.500000000000000     
  0.500000000000000     
  0.500000000000000     
  0.500000000000000     
  0.500000000000000     
  0.500000000000000     
  0.500000000000000     
  0.500000000000000     
  0.500000000000000     
  0.500000000000000     
  0.500000000000000     
  0.500000000000000     
  0.500000000000000     
  0.500000000000000     
  0.500000000000000     
  0.500000000000000     
  0.500000000000000     
  0.500000000000000     
  0.500000000000000     
  0.500000000000000     
  0.500000000000000     
  0.500000000000000     
  0.500000000000000     
  0.500000000000000     
  0.500000000000000     
  0.500000000000000     
  0.500000000000000     
  0.500000000000000     
  0.500000000000000     
  0.500000000000000     
  0.500000000000000     
  0.500000000000000     
  0.500000000000000     
  0.500000000000000     
  0.500000000000000     
  0.500000000000000     
  0.500000000000000     
  0.500000000000000     
  0.500000000000000     
  0.500000000000000     
  0.500000000000000     
  0.500000000000000     
  0.500000000000000     
  0.500000000000000     
  0.500000000000000     
  0.500000000000000     
  0.500000000000000     
  0.500000000000000     
  0.500000000000000     
  0.500000000000000     
  0.500000000000000     
  0.500000000000000     
  0.500000000000000     
  0.500000000000000     
  0.500000000000000     
  0.500000000000000     
  0.500000000000000     
  0.500000000000000     
  0.500000000000000     
  0.500000000000000     
  0.500000000000000     
  0.500000000000000     
  0.500000000000000     
  0.500000000000000     
  0.500000000000000     
  0.500000000000000     
  0.500000000000000     
  0.500000000000000     
  0.500000000000000     
  0.500000000000000     
  0.500000000000000     
  0.500000000000000     
  0.500000000000000     
  0.500000000000000     
  0.500000000000000     
  0.500000000000000     
  0.500000000000000     
  0.500000000000000     
  0.500000000000000     
  0.500000000000000     
  0.500000000000000     
  0.500000000000000     
  0.500000000000000     
  0.500000000000000     
  0.500000000000000     
  0.500000000000000     
  0.500000000000000     
  0.500000000000000     
  0.500000000000000     
  0.500000000000000     
  0.500000000000000     
  0.500000000000000     
  0.500000000000000     
  0.500000000000000     
  0.500000000000000     
  0.500000000000000     
  0.500000000000000     
  0.500000000000000     
  0.500000000000000     
  0.500000000000000     
  0.500000000000000     
  0.500000000000000     
  0.500000000000000     
  0.500000000000000     
  0.500000000000000     
  0.500000000000000     
  0.500000000000000     
  0.500000000000000     
  0.500000000000000     
  0.500000000000000     
  0.500000000000000     
  0.500000000000000     
  0.500000000000000     
  0.500000000000000     
  0.500000000000000     
  0.500000000000000     
  0.500000000000000     
  0.500000000000000     
  0.500000000000000     
  0.500000000000000     
  0.500000000000000     
  0.500000000000000     
  0.500000000000000     
  0.500000000000000     
  0.500000000000000     
  0.500000000000000     
  0.500000000000000     
  0.500000000000000     
  0.500000000000000     
  0.500000000000000     
  0.500000000000000     
  0.500000000000000     
  0.500000000000000     
  0.500000000000000     
  0.500000000000000     
  0.500000000000000     
  0.500000000000000     
  0.500000000000000     
  0.500000000000000     
  0.500000000000000     
  0.500000000000000     
  0.500000000000000     
  0.500000000000000     
  0.500000000000000     
  0.500000000000000     
  0.500000000000000     
  0.500000000000000     
  0.500000000000000     
  0.500000000000000     
  0.500000000000000     
  0.500000000000000     
  0.500000000000000     
  0.500000000000000     
  0.500000000000000     
  0.500000000000000     
  0.500000000000000     
  0.500000000000000     
  0.500000000000000     
  0.500000000000000     
  0.500000000000000     
  0.500000000000000     
  0.500000000000000     
  0.500000000000000     
  0.500000000000000     
  0.500000000000000     
  0.500000000000000     
  0.500000000000000     
  0.500000000000000     
  0.500000000000000     
  0.500000000000000     
  0.500000000000000     
  0.500000000000000     
  0.500000000000000     
  0.500000000000000     
  0.500000000000000     
  0.500000000000000     
  0.500000000000000     
  0.500000000000000     
  0.500000000000000     
  0.500000000000000     
  0.500000000000000     
  0.500000000000000     
  0.500000000000000     
  0.500000000000000     
  0.500000000000000     
  0.500000000000000     
  0.500000000000000     
  0.500000000000000     
  0.500000000000000     
  0.500000000000000     
  0.500000000000000     
  0.500000000000000     
  0.500000000000000     
  0.500000000000000     
  0.500000000000000     
  0.500000000000000     
  0.500000000000000     
  0.500000000000000     
  0.500000000000000     
  0.500000000000000     
  0.500000000000000     
  0.500000000000000     
  0.500000000000000     
  0.500000000000000     
  0.500000000000000     
  0.500000000000000     
  0.500000000000000     
  0.500000000000000     
  0.500000000000000     
  0.500000000000000     
  0.500000000000000     
  0.500000000000000     
  0.500000000000000     
  0.500000000000000     