# vtk DataFile Version 5.1
Data.vtk
ASCII
DATASET UNSTRUCTURED_GRID
 
POINTS 2000 float
   -8.50  -10.52    0.31
    2.48  -13.68   -0.41
  -10.53   -9.14    5.47
   -7.34  -10.68   -1.69
   -7.46   -7.40    6.16
   -9.12   -9.60   -8.66
    0.27  -12.25   -8.04
   -9.23   -8.75   -8.14
   -0.42  -11.43   -3.69
   -1.98  -13.56    0.49
   -8.25   -8.65   -1.11
  -10.86   -9.59   -8.09
   -5.82  -12.45   -0.07
   -8.88  -10.30    2.91
   -5.01  -11.71   -0.99
   -0.42  -12.17    1.24
   -1.85  -11.80    5.04
   -8.50  -10.74    7.68
    1.89  -14.38    8.24
   -7.81  -11.30   -3.76
   -9.61  -10.86   -1.47
   -1.50  -14.42    6.63
   -5.18   -9.61   -8.42
   -3.59  -14.03   -7.05
   -3.31  -13.22    1.60
   -4.39   -8.63   -2.52
   -9.93  -10.56    9.45
   -5.76   -9.78    7.41
   -8.14   -7.07    0.33
  -12.56   -5.43    4.04
   -9.56  -10.88   -3.26
    0.06  -11.58   -1.22
   -2.73  -10.04    4.48
   -6.16  -12.09   -3.27
  -11.43   -6.64   -3.55
   -5.88  -12.59    7.85
   -7.85   -9.30    7.43
   -8.63   -8.72    5.86
   -2.79   -9.92    0.43
   -8.71  -10.66    3.84
    3.50  -13.58    2.94
  -12.50   -7.35   -0.41
   -7.52   -8.06   -5.82
   -9.72  -10.69    1.72
  -11.88   -4.79   -7.53
   -3.99   -9.60    7.67
   -1.71  -11.73    4.05
   -5.08  -11.64   -5.31
    2.00  -13.64    6.39
   -5.63  -10.81   -9.50
   -5.12  -12.63   -7.84
  -10.05   -5.02    9.11
   -4.51  -10.17    5.93
   -2.12  -13.05    2.88
   -3.82   -9.98    4.21
    0.82  -12.22   -1.04
   -2.77  -10.40   -3.89
   -7.22   -8.73    3.05
  -13.20   -4.88   -1.10
   -9.34   -6.39   -3.23
   -7.75   -7.70   -0.74
   -3.56   -9.18   -1.08
   -3.76  -10.62    6.40
   -2.98  -14.19    4.33
   -3.38  -14.10    2.71
   -3.64  -12.31    0.33
  -10.60   -9.40   -0.31
   -2.69  -13.21    4.37
   -6.87  -12.35    0.38
   -5.77  -12.25   -5.91
  -10.77   -4.92    5.23
   -5.73  -13.32   -7.33
   -8.63  -10.73   -3.86
   -0.45  -11.24    3.47
    1.52  -12.87    4.56
  -11.83   -8.39   -5.81
   -0.43  -11.24    5.29
   -3.88   -8.97   -8.43
   -2.96  -12.50    2.89
    1.59  -11.80   -2.84
    0.24  -11.59    7.28
   -1.21  -11.81    5.80
   -4.79  -12.91   -0.10
   -1.88  -10.83   -8.01
   -5.87  -13.25   -8.45
   -3.66  -12.25   -6.84
  -12.86   -6.42   -0.33
   -1.53  -10.31   -4.34
   -4.95   -9.44    0.35
    0.08  -13.09    7.67
  -10.22  -10.21    0.14
   -2.56  -11.40   -7.53
  -10.31   -7.17   -2.18
  -10.24   -7.40    5.12
   -2.82  -14.22    5.57
   -3.14  -10.02   -0.74
   -4.98  -10.88    2.34
   -7.51   -8.03    3.71
   -1.94  -14.37   -0.51
   -8.73   -7.47   -1.61
  -12.20   -7.75    3.86
    2.33  -13.56   -4.20
   -3.58  -10.59    2.48
   -1.20  -11.13    4.66
   -6.26   -9.18    1.75
   -2.22  -11.44   -6.60
  -11.53   -7.19    8.29
   -4.69  -11.55   -3.54
  -11.78   -8.45    6.87
   -3.89  -12.61    3.31
   -9.35   -6.93    6.02
   -2.65  -12.37   -1.42
    2.09  -14.35   -3.42
   -1.23  -11.51   -6.37
   -1.79  -14.39    3.98
   -0.37  -12.96   -7.50
  -11.67   -7.17   -2.06
   -8.62   -8.51   -2.62
   -2.32  -14.31    7.21
  -13.01   -6.19    9.49
    1.78  -12.86    7.10
  -12.05   -5.54    7.34
   -2.37  -12.35    6.93
   -1.68  -10.46    1.67
   -8.92   -6.37    0.20
   -3.34   -9.63   -4.52
    0.98  -13.21   -7.08
   -9.40  -10.59    0.78
    1.05  -13.91   -9.06
    0.90  -12.22   -7.26
   -6.89  -11.68   -3.81
   -2.03  -12.33    2.19
   -4.16  -10.53    0.34
   -0.96  -10.98    0.22
  -11.59   -6.35   -7.92
   -9.37   -7.80    7.93
   -9.04  -11.34   -6.79
   -7.22  -12.57   -5.30
   -6.34   -7.84    8.32
   -5.46  -13.41    5.95
   -4.48  -12.88   -3.57
  -10.08  -10.35    2.59
   -6.24  -10.83   -2.41
  -10.59   -7.21    6.11
   -7.92   -8.32    4.57
   -8.85  -10.31    8.54
   -8.00   -9.99    6.19
   -5.58   -9.12   -3.90
   -6.92  -11.82   -7.30
   -7.47  -10.44   -8.67
   -1.88  -13.52    6.07
   -9.10   -7.35    0.24
   -5.91  -10.03    3.54
   -1.59  -12.05   -2.06
   -7.48   -9.91   -5.07
  -12.99   -6.45    2.75
  -10.46   -8.43    4.03
   -4.54   -8.33    5.48
  -12.93   -5.29    8.15
    1.52  -13.48    3.69
   -4.32  -11.40   -4.58
   -2.44   -9.47    6.09
   -2.38  -12.36   -7.73
    0.34  -13.75    0.89
   -4.60   -8.55   -8.98
    0.38  -13.15    1.69
   -8.92  -10.26   -0.56
   -2.63  -13.53   -8.87
   -1.59  -11.99   -0.37
   -6.48   -8.55   -5.43
   -1.27  -14.44   -1.63
   -9.78   -5.89   -7.84
   -2.48  -10.26    8.45
   -6.86   -7.77   -4.93
   -4.41  -10.02    2.32
    0.38  -12.16   -0.14
   -7.01   -9.45    8.72
  -10.69   -6.29    7.01
   -2.24  -10.92   -1.14
   -5.64  -11.61    1.87
   -8.60  -11.67   -5.95
    0.51  -12.49    0.95
    2.06  -14.01   -1.27
   -6.41  -10.17   -9.46
   -4.67  -11.95    9.37
   -0.57  -14.49   -5.02
   -7.24   -9.30   -0.12
   -9.80  -10.69   -6.83
  -13.07   -6.28    7.73
  -11.45   -8.89   -2.05
   -4.63  -12.51   -1.62
   -9.94   -9.23    7.65
   -0.31  -13.84    9.02
   -9.52  -10.94   -9.50
   -3.60  -10.59   -4.58
   -3.37  -12.50    7.24
   -9.02   -7.79   -8.00
   -7.75  -11.36   -7.00
   -9.62   -8.97   -0.10
    1.28  -14.44   -2.76
   -2.56  -11.80    5.81
   -1.88  -10.24    6.37
   -2.13  -14.32   -3.76
   -3.10  -12.30   -0.52
  -11.94   -8.06    2.17
   -9.47   -7.37   -3.39
    0.27  -12.02   -5.28
   -6.90  -10.33    8.25
    1.03  -12.69   -5.06
   -1.45  -12.15   -8.84
   -5.40   -7.97    6.90
   -7.89   -8.51   -9.07
    1.97  -11.97    4.24
   -8.89   -9.77   -1.88
   -8.86   -7.46   -5.05
    2.84  -13.90    1.61
    1.53  -12.53    1.19
   -8.10   -9.25    4.88
  -13.25   -3.98   -5.90
  -12.33   -5.98   -1.05
   -3.07  -10.23    5.47
   -1.00  -13.75    7.17
   -9.76   -7.29   -7.06
   -3.77  -10.34   -1.89
   -1.56  -13.45    8.64
   -4.29   -7.85    9.50
  -11.80   -4.53   -3.92
    0.36  -14.49   -3.23
   -9.58   -6.88    8.24
   -4.50   -9.43   -9.50
  -11.46   -8.08   -4.93
   -4.20  -11.34    4.80
   -7.24  -11.41   -6.15
   -4.30   -9.55    5.17
   -9.71   -9.70   -6.69
  -12.87   -6.44   -1.81
   -8.80   -7.25    2.01
    2.27  -12.68   -0.25
   -7.70  -11.18    4.23
   -7.72   -8.82   -7.15
   -3.19  -11.80    3.56
   -4.31   -7.74    6.31
   -8.50   -9.23   -9.40
   -0.23  -12.45   -9.50
   -2.25  -11.81    3.02
   -8.21   -8.79    1.58
   -1.17  -11.45   -9.50
    1.37  -13.71   -2.07
  -11.70   -4.55    8.52
   -6.06  -10.47    8.77
   -4.82  -11.23    0.59
  -12.17   -7.83   -9.49
   -6.64   -8.77   -8.00
   -7.69  -12.28    6.95
    3.04  -14.18    5.81
   -4.84  -12.11    4.84
   -9.37   -7.78   -9.41
   -5.39  -13.46    4.46
   -5.57  -10.77   -5.25
   -5.55  -12.13   -1.72
    2.50  -14.28   -7.07
   -8.05   -7.40   -7.76
  -12.09   -5.42    2.84
   -7.66   -7.29    4.37
  -12.88   -6.02   -5.90
   -5.94  -13.21   -6.15
   -3.72  -14.01    5.19
   -5.18   -8.47    0.46
   -6.45  -11.17   -8.67
   -7.18   -7.87   -8.78
   -5.32  -12.67   -0.91
   -5.15  -10.20    1.60
   -1.71  -14.40   -7.89
    1.79  -13.55   -8.47
   -0.55  -10.71   -6.24
   -5.76  -11.45    7.43
   -1.67  -13.43    3.70
   -0.59  -11.96    8.15
   -1.67  -12.43   -6.67
  -10.17   -7.30   -0.35
   -9.17   -7.95    5.50
   -1.43  -14.43    8.45
   -4.31  -12.94   -5.94
   -5.91   -8.53    9.49
  -10.01   -7.01    1.51
   -1.84  -10.44    0.59
   -3.64  -11.34    0.08
   -0.95  -12.80    7.66
   -1.73  -12.00   -4.47
   -0.90  -12.37    5.03
   -9.54   -9.21    4.88
   -8.74   -5.85    6.09
   -5.16  -10.37   -2.45
   -1.39  -12.63   -5.18
    0.87  -12.38    7.07
   -7.12  -11.44   -1.09
   -7.38  -12.42   -8.00
   -1.32  -12.22    6.92
   -7.93  -11.73    6.15
   -8.98  -11.38   -7.79
   -6.51  -11.24    1.53
   -5.68  -13.34    7.09
   -1.07  -12.56    2.33
   -0.94  -11.94   -1.31
    2.70  -14.25    0.66
   -5.48  -11.19    8.39
    0.15  -11.99    4.88
   -5.11  -13.56   -6.58
   -5.30  -11.13   -1.75
   -9.81   -5.90    8.28
   -3.87  -11.29   -7.04
   -0.11  -12.98    5.06
    0.54  -13.11    0.15
  -12.00   -5.05   -0.33
   -4.51   -9.76   -7.00
    0.33  -12.33   -3.19
   -3.48  -10.79   -8.94
    2.77  -13.26   -3.02
  -12.74   -5.70    2.14
   -7.64   -8.29   -7.99
   -6.80  -10.07   -8.02
   -1.19  -11.33   -3.06
   -6.19  -11.68    0.67
   -6.03  -11.91   -4.26
   -4.48   -9.63   -2.61
    3.14  -14.16   -1.32
   -4.55  -11.92    3.02
    1.76  -12.35    5.76
   -8.36   -9.34   -6.52
   -9.37   -8.76    3.41
   -2.21  -11.29   -2.24
   -9.13   -9.74    0.30
  -11.98   -8.17   -0.62
   -3.67  -12.38   -1.35
   -2.37  -12.90    8.45
   -9.84   -8.02    0.26
   -7.49   -6.55    5.01
  -11.34   -8.87    3.73
   -8.47   -8.05   -0.14
   -0.01  -13.54   -0.90
   -2.56  -11.72   -4.00
    2.70  -13.44   -7.97
    0.33  -13.84    5.93
   -5.94   -9.50    4.38
   -0.82  -11.86   -8.07
   -5.27  -10.61   -6.77
   -3.40   -9.69    6.29
   -4.05   -9.82   -0.36
   -5.29  -12.32   -3.72
  -10.62   -9.76    7.05
  -12.05   -6.59   -4.76
   -7.90  -10.05   -9.48
  -11.06   -7.81   -0.82
  -11.64   -6.94    3.66
   -3.86  -10.86   -5.51
   -1.45  -11.20    3.24
   -0.06  -13.02   -2.57
   -3.27  -13.22    8.72
   -6.58   -8.00    3.32
  -12.21   -5.48   -6.81
   -3.03  -10.13    9.44
   -5.23  -12.77    9.50
   -0.86  -12.87   -4.36
   -9.16  -11.20    9.50
    1.11  -14.46    9.33
   -4.11   -9.22    1.48
  -13.60   -4.36    9.09
   -2.55  -13.34   -7.87
   -5.27   -9.91   -4.84
   -4.28   -8.29    7.17
   -4.82  -12.64   -6.88
  -10.20   -6.26   -8.92
   -1.42  -13.50   -3.82
   -8.40  -10.54    9.40
   -7.30   -8.08   -1.55
  -12.74   -6.92    4.12
    0.36  -12.85    4.18
   -1.51  -10.54   -2.52
   -2.66  -11.97   -4.96
  -10.20   -8.87   -7.76
   -1.43  -13.13   -9.10
   -2.16  -10.10   -0.37
   -0.97  -12.92   -2.13
   -0.80  -13.69    6.08
   -6.82   -8.87   -2.38
   -6.14   -8.01   -9.25
   -1.71  -12.64   -1.20
   -3.76  -14.00    0.01
   -2.98  -11.80   -3.09
   -2.60  -10.09   -8.22
   -4.74  -13.70    8.66
   -1.66  -14.39    5.64
   -1.62  -11.12   -4.92
    3.82  -13.99    4.31
   -5.86   -9.42    6.48
    0.06  -13.52    3.50
[...]
POINT_DATA 2000
SCALARS radius float
LOOKUP_TABLE default
  0.500000000000000     
  0.500000000000000     
  0.500000000000000     
  0.500000000000000     
  0.500000000000000     
  0.500000000000000     
  0.500000000000000     
  0.500000000000000     
  0.500000000000000     
  0.500000000000000     
  0.500000000000000     
  0.500000000000000     
  0.500000000000000     
  0.500000000000000     
  0.500000000000000     
  0.500000000000000     
  0.500000000000000     
  0.500000000000000     
  0.500000000000000     
  0.500000000000000     
  0.500000000000000     
  0.500000000000000     
  0.500000000000000     
  0.500000000000000     
  0.500000000000000     
  0.500000000000000     
  0.500000000000000     
  0.500000000000000     
  0.500000000000000     
  0.500000000000000     
  0.500000000000000     
  0.500000000000000     
  0.500000000000000     
  0.500000000000000     
  0.500000000000000     
  0.500000000000000     
  0.500000000000000     
  0.500000000000000     
  0.500000000000000     
  0.500000000000000     
  0.500000000000000     
  0.500000000000000     
  0.500000000000000     
  0.500000000000000     
  0.500000000000000     
  0.500000000000000     
  0.500000000000000     
  0.500000000000000     
  0.500000000000000     
  0.500000000000000     
  0.500000000000000     
  0.500000000000000     
  0.500000000000000     
  0.500000000000000     
  0.500000000000000     
  0.500000000000000     
  0.500000000000000     
  0.500000000000000     
  0.500000000000000     
  0.500000000000000     
  0.500000000000000     
  0.500000000000000     
  0.500000000000000     
  0.500000000000000     
  0.500000000000000     
  0.500000000000000     
  0.500000000000000     
  0.500000000000000     
  0.500000000000000     
  0.500000000000000     
  0.500000000000000     
  0.500000000000000     
  0.500000000000000     
  0.500000000000000     
  0.500000000000000     
  0.500000000000000     
  0.500000000000000     
  0.500000000000000     
  0.500000000000000     
  0.500000000000000     
  0.500000000000000     
  0.500000000000000     
  0.500000000000000     
  0.500000000000000     
  0.500000000000000     
  0.500000000000000     
  0.500000000000000     
  0.500000000000000     
  0.500000000000000     
  0.500000000000000     
  0.500000000000000     
  0.500000000000000     
  0.500000000000000     
  0.500000000000000     
  0.500000000000000     
  0.500000000000000     
  0.500000000000000     
  0.500000000000000     
  0.500000000000000     
  0.500000000000000     
  0.500000000000000     
  0.500000000000000     
  0.500000000000000     
  0.500000000000000     
  0.500000000000000     
  0.500000000000000     
  0.500000000000000     
  0.500000000000000     
  0.500000000000000     
  0.500000000000000     
  0.500000000000000     
  0.500000000000000     
  0.500000000000000     
  0.500000000000000     
  0.500000000000000     
  0.500000000000000     
  0.500000000000000     
  0.500000000000000     
  0.500000000000000     
  0.500000000000000     
  0.500000000000000     
  0.500000000000000     
  0.500000000000000     
  0.500000000000000     
  0.500000000000000     
  0.500000000000000     
  0.500000000000000     
  0.500000000000000     
  0.500000000000000     
  0.500000000000000     
  0.500000000000000     
  0.500000000000000     
  0.500000000000000     
  0.500000000000000     
  0.500000000000000     
  0.500000000000000     
  0.500000000000000     
  0.500000000000000     
  0.500000000000000     
  0.500000000000000     
  0.500000000000000     
  0.500000000000000     
  0.500000000000000     
  0.500000000000000     
  0.500000000000000     
  0.500000000000000     
  0.500000000000000     
  0.500000000000000     
  0.500000000000000     
  0.500000000000000     
  0.500000000000000     
  0.500000000000000     
  0.500000000000000     
  0.500000000000000     
  0.500000000000000     
  0.500000000000000     
  0.500000000000000     
  0.500000000000000     
  0.500000000000000     
  0.500000000000000     
  0.500000000000000     
  0.500000000000000     
  0.500000000000000     
  0.500000000000000     
  0.500000000000000     
  0.500000000000000     
  0.500000000000000     
  0.500000000000000     
  0.500000000000000     
  0.500000000000000     
  0.500000000000000     
  0.500000000000000     
  0.500000000000000     
  0.500000000000000     
  0.500000000000000     
  0.500000000000000     
  0.500000000000000     
  0.500000000000000     
  0.500000000000000     
  0.500000000000000     
  0.500000000000000     
  0.500000000000000     
  0.500000000000000     
  0.500000000000000     
  0.500000000000000     
  0.500000000000000     
  0.500000000000000     
  0.500000000000000     
  0.500000000000000     
  0.500000000000000     
  0.500000000000000     
  0.500000000000000     
  0.500000000000000     
  0.500000000000000     
  0.500000000000000     
  0.500000000000000     
  0.500000000000000     
  0.500000000000000     
  0.500000000000000     
  0.500000000000000     
  0.500000000000000     
  0.500000000000000     
  0.500000000000000     
  0.500000000000000     
  0.500000000000000     
  0.500000000000000     
  0.500000000000000     
  0.500000000000000     
  0.500000000000000     
  0.500000000000000     
  0.500000000000000     
  0.500000000000000     
  0.500000000000000     
  0.500000000000000     
  0.500000000000000     
  0.500000000000000     
  0.500000000000000     
  0.500000000000000     
  0.500000000000000     
  0.500000000000000     
  0.500000000000000     
  0.500000000000000     
  0.500000000000000     
  0.500000000000000     
  0.500000000000000     
  0.500000000000000     
  0.500000000000000     
  0.500000000000000     
  0.500000000000000     
  0.500000000000000     
  0.500000000000000     
  0.500000000000000     
  0.500000000000000     
  0.500000000000000     
  0.500000000000000     
  0.500000000000000     
  0.500000000000000     
  0.500000000000000     
  0.500000000000000     
  0.500000000000000     
  0.500000000000000     
  0.500000000000000     
  0.500000000000000     
  0.500000000000000     
  0.500000000000000     
  0.500000000000000     
  0.500000000000000     
  0.500000000000000     
  0.500000000000000     
  0.500000000000000     
  0.500000000000000     
  0.500000000000000     
  0.500000000000000     
  0.500000000000000     
  0.500000000000000     
  0.500000000000000     
  0.500000000000000     
  0.500000000000000     
  0.500000000000000     
  0.500000000000000     
  0.500000000000000     
  0.500000000000000     
  0.500000000000000     
  0.500000000000000     
  0.500000000000000     
  0.500000000000000     
  0.500000000000000     
  0.500000000000000     
  0.500000000000000     
  0.500000000000000     
  0.500000000000000     
  0.500000000000000     
  0.500000000000000     
  0.500000000000000     
  0.500000000000000     
  0.500000000000000     
  0.500000000000000     
  0.500000000000000     
  0.500000000000000     
  0.500000000000000     
  0.500000000000000     
  0.500000000000000     
  0.500000000000000     
  0.500000000000000     
  0.500000000000000     
  0.500000000000000     
  0.500000000000000     
  0.500000000000000     
  0.500000000000000     
  0.500000000000000     
  0.500000000000000     
  0.500000000000000     
  0.500000000000000     
  0.500000000000000     
  0.500000000000000     
  0.500000000000000     
  0.500000000000000     
  0.500000000000000     
  0.500000000000000     
  0.500000000000000     
  0.500000000000000     
  0.500000000000000     
  0.500000000000000     
  0.500000000000000     
  0.500000000000000     
  0.500000000000000     
  0.500000000000000     
  0.500000000000000     
  0.500000000000000     
  0.500000000000000     
  0.500000000000000     
  0.500000000000000     
  0.500000000000000     
  0.500000000000000     
  0.500000000000000     
  0.500000000000000     
  0.500000000000000     
  0.500000000000000     
  0.500000000000000     
  0.500000000000000     
  0.500000000000000     
  0.500000000000000     
  0.500000000000000     
  0.500000000000000     
  0.500000000000000     
  0.500000000000000     
  0.500000000000000     
  0.500000000000000     
  0.500000000000000     
  0.500000000000000     
  0.500000000000000     
  0.500000000000000     
  0.500000000000000     
  0.500000000000000     
  0.500000000000000     
  0.500000000000000     
  0.500000000000000     
  0.500000000000000     
  0.500000000000000     
  0.500000000000000     
  0.500000000000000     
  0.500000000000000     
  0.500000000000000     
  0.500000000000000     
  0.500000000000000     
  0.500000000000000     
  0.500000000000000     
  0.500000000000000     
  0.500000000000000     
  0.500000000000000     
  0.500000000000000     
  0.500000000000000     
  0.500000000000000     
  0.500000000000000     
  0.500000000000000     
  0.500000000000000     
  0.500000000000000     
  0.500000000000000     
  0.500000000000000     
  0.500000000000000     
  0.500000000000000     
  0.500000000000000     
  0.500000000000000     
  0.500000000000000     
  0.500000000000000     
  0.500000000000000     
  0.500000000000000     
  0.500000000000000     
  0.500000000000000     
  0.500000000000000     
  0.500000000000000     
  0.500000000000000     
  0.500000000000000     
  0.500000000000000     
  0.500000000000000     
  0.500000000000000     
  0.500000000000000     
  0.500000000000000     
  0.500000000000000     
  0.500000000000000     
  0.500000000000000     
  0.500000000000000     
  0.500000000000000     
  0.500000000000000     
  0.500000000000000     
  0.500000000000000     
  0.500000000000000     
  0.500000000000000     
  0.500000000000000     
  0.500000000000000     
  0.500000000000000     
  0.500000000000000     
  0.500000000000000     
  0.500000000000000     
  0.500000000000000     
  0.500000000000000     
  0.500000000000000     
  0.500000000000000     
  0.500000000000000     
  0.500000000000000     
  0.500000000000000     
  0.500000000000000     
  0.500000000000000     
  0.500000000000000     
  0.500000000000000     
  0.500000000000000     
  0.500000000000000     
  0.500000000000000     
  0.500000000000000     
  0.500000000000000     
  0.500000000000000     
  0.500000000000000     
  0.500000000000000     
  0.500000000000000     
  0.500000000000000     
  0.500000000000000     
  0.500000000000000     
  0.500000000000000     
  0.500000000000000     
  0.500000000000000     
  0.500000000000000     
  0.500000000000000     
  0.500000000000000     
  0.500000000000000     
  0.500000000000000     
  0.500000000000000     
  0.500000000000000     
  0.500000000000000     
  0.500000000000000     
  0.500000000000000     
  0.500000000000000     
  0.500000000000000     
  0.500000000000000     
  0.500000000000000     
  0.500000000000000     
  0.500000000000000     
  0.500000000000000     
  0.500000000000000     
  0.500000000000000     
  0.500000000000000     
  0.500000000000000     
  0.500000000000000     
  0.500000000000000     
  0.500000000000000     
  0.500000000000000     
  0.500000000000000     
  0.500000000000000     
  0.500000000000000     
  0.500000000000000     
  0.500000000000000     
  0.500000000000000     
  0.500000000000000     
  0.500000000000000     
  0.500000000000000     
  0.500000000000000     
  0.500000000000000     
  0.500000000000000     
  0.500000000000000     
  0.500000000000000     
  0.500000000000000     
  0.500000000000000     
  0.500000000000000     
  0.500000000000000     
  0.500000000000000     
  0.500000000000000     
  0.500000000000000     
  0.500000000000000     
  0.500000000000000     
  0.500000000000000     
  0.500000000000000     
  0.500000000000000     
  0.500000000000000     
  0.500000000000000     
  0.500000000000000     
  0.500000000000000     
  0.500000000000000     
  0.500000000000000     
  0.500000000000000     
  0.500000000000000     
  0.500000000000000     
  0.500000000000000     
  0.500000000000000     
  0.500000000000000     
  0.500000000000000     
  0.500000000000000     
  0.500000000000000     
  0.500000000000000     
  0.500000000000000     
  0.500000000000000     
  0.500000000000000     
  0.500000000000000     
  0.500000000000000     
  0.500000000000000     
  0.500000000000000     
  0.500000000000000     
  0.500000000000000     
  0.500000000000000     
  0.500000000000000     
  0.500000000000000     
  0.500000000000000     
  0.500000000000000     
  0.500000000000000     
  0.500000000000000     
  0.500000000000000     
  0.500000000000000     
  0.500000000000000     
  0.500000000000000     
  0.500000000000000     
  0.500000000000000     
  0.500000000000000     
  0.500000000000000     
  0.500000000000000     
  0.500000000000000     
  0.500000000000000     
  0.500000000000000     
  0.500000000000000     
  0.500000000000000     
  0.500000000000000     
  0.500000000000000     
  0.500000000000000     
  0.500000000000000     
  0.500000000000000     
  0.500000000000000     
  0.500000000000000     
  0.500000000000000     
  0.500000000000000     
  0.500000000000000     
  0.500000000000000     
  0.500000000000000     
  0.500000000000000     
  0.500000000000000     
  0.500000000000000     
  0.500000000000000     
  0.500000000000000     
  0.500000000000000     
  0.500000000000000     
  0.500000000000000     
  0.500000000000000     
  0.500000000000000     
  0.500000000000000     
  0.500000000000000     
  0.500000000000000     
  0.500000000000000     
  0.500000000000000     
  0.500000000000000     
  0.500000000000000     
  0.500000000000000     
  0.500000000000000     
  0.500000000000000     
  0.500000000000000     
  0.500000000000000     
  0.500000000000000     
  0.500000000000000     
  0.500000000000000     
  0.500000000000000     
  0.500000000000000     
  0.500000000000000     
  0.500000000000000     
  0.500000000000000     
  0.500000000000000     
  0.500000000000000     
  0.500000000000000     
  0.500000000000000     
  0.500000000000000     
  0.500000000000000     
  0.500000000000000     
  0.500000000000000     
  0.500000000000000     
  0.500000000000000     
  0.500000000000000     
  0.500000000000000     
  0.500000000000000     
  0.500000000000000     
  0.500000000000000     
  0.500000000000000     
  0.500000000000000     
  0.500000000000000     
  0.500000000000000     
  0.500000000000000     
  0.500000000000000     
  0.500000000000000     
  0.500000000000000     
  0.500000000000000     
  0.500000000000000     
  0.500000000000000     
  0.500000000000000     
  0.500000000000000     
  0.500000000000000     
  0.500000000000000     
  0.500000000000000     
  0.500000000000000     
  0.500000000000000     
  0.500000000000000     
  0.500000000000000     
  0.500000000000000     
  0.500000000000000     
  0.500000000000000     
  0.500000000000000     
  0.500000000000000     
  0.500000000000000     
  0.500000000000000     
  0.500000000000000     
  0.500000000000000     
  0.500000000000000     
  0.500000000000000     
  0.500000000000000     
  0.500000000000000     
  0.500000000000000     
  0.500000000000000     
  0.500000000000000     
  0.500000000000000     
  0.500000000000000     
  0.500000000000000     
  0.500000000000000     
  0.500000000000000     
  0.500000000000000     
  0.500000000000000     
  0.500000000000000     
  0.500000000000000     
  0.500000000000000     
  0.500000000000000     
  0.500000000000000     
  0.500000000000000     
  0.500000000000000     
  0.500000000000000     
  0.500000000000000     
  0.500000000000000     
  0.500000000000000     
  0.500000000000000     
  0.500000000000000     
  0.500000000000000     
  0.500000000000000     
  0.500000000000000     
  0.500000000000000     
  0.500000000000000     
  0.500000000000000     
  0.500000000000000     
  0.500000000000000     
  0.500000000000000     
  0.500000000000000     
  0.500000000000000     
  0.500000000000000     
  0.500000000000000     
  0.500000000000000     
  0.500000000000000     
  0.500000000000000     
  0.500000000000000     
  0.500000000000000     
  0.500000000000000     
  0.500000000000000     
  0.500000000000000     
  0.500000000000000     
  0.500000000000000     
  0.500000000000000     
  0.500000000000000     
  0.500000000000000     
  0.500000000000000     
  0.500000000000000     
  0.500000000000000     
  0.500000000000000     
  0.500000000000000     
  0.500000000000000     
  0.500000000000000     
  0.500000000000000     
  0.500000000000000     
  0.500000000000000     
  0.500000000000000     
  0.500000000000000     
  0.500000000000000     
  0.500000000000000     
  0.500000000000000     
  0.500000000000000     
  0.500000000000000     
  0.500000000000000     
  0.500000000000000     
  0.500000000000000     
  0.500000000000000     
  0.500000000000000     
  0.500000000000000     
  0.500000000000000     
  0.500000000000000     
  0.500000000000000     
  0.500000000000000     
  0.500000000000000     
  0.500000000000000     
  0.500000000000000     
  0.500000000000000     
  0.500000000000000     
  0.500000000000000     
  0.500000000000000     
  0.500000000000000     
  0.500000000000000     
  0.500000000000000     
  0.500000000000000     
  0.500000000000000     
  0.500000000000000     
  0.500000000000000     
  0.500000000000000     
  0.500000000000000     
  0.500000000000000     
  0.500000000000000     
  0.500000000000000     
  0.500000000000000     
  0.500000000000000     
  0.500000000000000     
  0.500000000000000     
  0.500000000000000     
  0.500000000000000     
  0.500000000000000     
  0.500000000000000     
  0.500000000000000     
  0.500000000000000     
  0.500000000000000     
  0.500000000000000     
  0.500000000000000     
  0.500000000000000     
  0.500000000000000     
  0.500000000000000     
  0.500000000000000     
  0.500000000000000     
  0.500000000000000     
  0.500000000000000     
  0.500000000000000     
  0.500000000000000     
  0.500000000000000     
  0.500000000000000     
  0.500000000000000     
  0.500000000000000     
  0.500000000000000     
  0.500000000000000     
  0.500000000000000     
  0.500000000000000     
  0.500000000000000     
  0.500000000000000     
  0.500000000000000     
  0.500000000000000     
  0.500000000000000     
  0.500000000000000     
  0.500000000000000     
  0.500000000000000     
  0.500000000000000     
  0.500000000000000     
  0.500000000000000     
  0.500000000000000     
  0.500000000000000     
  0.500000000000000     
  0.500000000000000     
  0.500000000000000     
  0.500000000000000     
  0.500000000000000     
  0.500000000000000     
  0.500000000000000     
  0.500000000000000     
  0.500000000000000     
  0.500000000000000     
  0.500000000000000     
  0.500000000000000     
  0.500000000000000     
  0.500000000000000     
  0.500000000000000     
  0.500000000000000     
  0.500000000000000     
  0.500000000000000     
  0.500000000000000     
  0.500000000000000     
  0.500000000000000     
  0.500000000000000     
  0.500000000000000     
  0.500000000000000     
  0.500000000000000     
  0.500000000000000     
  0.500000000000000     
  0.500000000000000     
  0.500000000000000     
  0.500000000000000     
  0.500000000000000     
  0.500000000000000     
  0.500000000000000     
  0.500000000000000     
  0.500000000000000     
  0.500000000000000     
  0.500000000000000     
  0.500000000000000     
  0.500000000000000     
  0.500000000000000     
  0.500000000000000     
  0.500000000000000     
  0.500000000000000     
  0.500000000000000     
  0.500000000000000     
  0.500000000000000     
  0.500000000000000     
  0.500000000000000     
  0.500000000000000     
  0.500000000000000     
  0.500000000000000     
  0.500000000000000     