# vtk DataFile Version 5.1
Data.vtk
ASCII
DATASET UNSTRUCTURED_GRID
 
POINTS 2000 float
    1.28  -11.54   -0.61
  -10.05   -8.94    1.63
    4.87  -13.66    2.75
   -1.75  -12.22   -1.87
   -7.23  -11.48    7.60
   -2.61  -10.85   -9.34
   -6.32   -8.98   -5.99
   -0.46  -13.45   -8.63
  -10.64   -8.28   -2.78
   -6.03  -12.54   -0.40
   -5.31  -13.49   -4.66
   -7.77  -10.14   -9.49
    1.78  -12.80   -1.75
   -3.82  -12.16    0.55
   -0.22  -14.50   -1.56
  -10.42   -7.73    0.82
   -8.19  -10.08    5.13
    4.81  -13.10    4.70
   -0.70  -11.58    6.00
    3.38  -14.10   -6.56
    0.78  -14.48   -1.47
    2.44  -11.71    5.17
   -8.33   -8.44   -9.33
    4.15  -11.93   -6.26
   -0.45  -12.53   -0.94
  -13.25   -5.56   -8.41
    0.83  -14.47    6.88
    0.77  -12.40    7.10
   -9.44  -10.95   -0.92
   -7.08  -12.65    9.50
    5.03  -13.60   -6.19
  -11.42   -8.92   -1.65
   -9.97   -7.26    7.19
   -8.36  -10.77   -2.20
    0.91  -13.90   -6.08
    2.17  -11.28    6.05
  -12.12   -7.94    9.27
   -4.84  -13.67    6.25
   -5.94  -13.22    1.05
   -3.85  -12.29    1.55
   -4.90   -9.54    0.84
    4.52  -13.77   -1.46
   -9.27  -11.13   -7.97
    0.64  -13.02    0.41
   -7.62  -11.24   -8.48
   -4.91   -9.51    1.84
   -2.85  -10.54    3.81
    1.38  -12.69   -4.56
   -9.35   -8.69    3.06
    2.66  -13.34   -6.50
   -1.27  -10.89   -4.61
   -3.96  -11.12    9.46
   -6.35  -11.93    7.77
   -6.58  -11.86    2.39
  -10.90   -9.56    4.69
   -8.84   -9.78    0.91
  -11.54   -6.69   -6.01
   -3.95  -13.94    2.86
   -1.90  -14.37    1.30
   -9.64   -8.10   -8.92
   -3.26  -14.13   -2.25
   -9.19  -11.20   -9.49
   -0.86  -12.03    6.93
    2.49  -12.19    2.59
   -1.38  -11.35    0.40
   -5.21  -12.70    0.56
    3.46  -13.39   -5.27
   -8.21  -10.70    3.50
    4.95  -12.70   -2.93
   -7.10  -10.40   -2.06
  -11.54   -8.07    7.94
    5.81  -13.29   -8.76
   -0.27  -11.46   -3.13
  -11.69   -8.36    6.04
  -12.21   -6.06    3.97
    2.41  -14.30   -8.49
   -9.82   -7.75    6.33
   -0.39  -10.55   -4.04
   -5.32  -12.44    2.56
  -13.39   -5.29   -1.32
    0.51  -11.05    8.71
  -12.88   -6.33    6.07
    0.78  -13.49   -2.52
   -7.33   -8.48   -6.16
    2.09  -12.52   -7.96
   -4.69  -11.04   -4.72
    3.44  -14.09    1.96
  -10.10   -8.77   -4.98
   -7.71  -12.28    0.05
   -6.53   -9.97    5.76
   -5.23  -11.71    0.38
    0.63  -11.85   -8.06
   -7.87  -12.18   -3.72
   -9.52  -10.94    9.46
   -0.74  -10.75    2.27
  -10.87   -9.59   -3.22
   -3.02  -14.18    3.16
   -4.87  -12.71    5.98
   -1.16  -10.66   -1.21
   -7.88  -12.17   -1.89
    4.89  -12.39    1.97
  -10.06   -9.08   -2.66
  -10.26  -10.18    1.25
  -13.34   -5.60    7.14
   -4.42  -13.81    1.81
  -10.29   -7.12   -6.88
   -1.91  -10.69    4.10
   -8.69  -11.60   -3.61
    4.37  -13.38    8.62
   -0.31  -13.76    3.34
   -8.60  -11.67    7.63
   -3.91  -13.23   -2.48
   -4.83   -9.57   -2.05
   -3.51  -10.53   -6.36
    1.01  -11.36    2.53
   -5.32   -9.99   -7.29
   -1.93  -14.37    0.30
  -10.20  -10.31   -8.16
    5.91  -12.42    3.90
   -8.05  -10.84    9.48
   -1.01  -10.10    5.74
  -13.47   -5.36    9.12
    0.06  -12.99    8.61
  -10.67   -8.63    3.93
   -8.34  -11.86    0.72
  -11.44   -6.21   -4.16
    0.80  -10.82   -2.78
    2.80  -14.23    3.28
    1.60  -11.03   -6.02
   -1.33   -9.94   -8.03
   -3.87  -12.41   -3.76
  -10.21  -10.30    3.25
   -8.80   -8.85   -0.47
  -11.37   -8.77    0.41
   -5.67  -11.75   -7.59
    2.25  -12.72    7.01
    4.47  -12.84   -6.52
    4.61  -12.94   -4.06
   -7.50   -8.95    8.31
    3.37  -12.33    1.06
   -8.79   -9.47   -2.62
    3.30  -14.06    4.56
   -4.46  -12.17   -6.83
   -8.74  -11.57    9.50
  -10.10  -10.37    5.97
    1.77  -13.49    9.50
   -3.81  -13.20    5.83
   -7.98   -6.98   -9.23
    0.88  -11.97   -5.04
    0.74  -12.47   -9.50
   -5.49  -11.22    4.48
   -9.51  -10.94   -1.92
   -9.54  -10.92    5.36
  -11.25   -9.05   -5.86
    4.32  -12.89   -7.61
   -0.22  -14.50    1.76
   -1.25  -14.44    2.07
   -9.67   -7.27    4.91
   -5.53  -12.73    7.74
   -5.32   -9.30    3.82
   -8.77  -11.52   -7.19
   -8.32   -8.36    4.15
    3.35  -11.71   -7.23
   -3.09   -9.99    0.82
   -7.23   -9.67   -7.21
  -10.92   -9.54    1.91
    1.48  -13.78   -3.16
    2.64  -13.30   -7.66
   -7.60   -9.20   -2.07
   -8.83  -10.28   -7.64
    0.20  -11.30    0.72
   -9.71   -9.49   -7.87
   -4.16  -10.69    7.50
  -10.73   -9.74   -6.36
   -2.23  -13.48    5.51
  -11.88   -8.30   -1.02
   -3.22  -11.81    8.49
   -8.99  -10.09    9.50
  -10.44   -9.94   -4.96
   -1.34  -13.16   -0.47
   -3.09  -14.17   -9.50
   -9.54   -7.82    1.34
   -2.71   -9.82   -0.51
   -8.54   -9.25   -8.20
   -4.04  -11.55    7.99
   -1.61  -11.33   -2.71
   -5.15  -13.55   -6.55
    5.41  -12.74   -6.93
   -5.36  -13.47    7.08
    4.09  -13.91   -2.58
   -4.67  -12.56   -2.51
    1.91  -12.89    4.22
   -1.85  -11.19    7.78
   -5.08  -11.54   -9.50
   -9.92   -8.51   -3.50
   -4.69   -9.66    5.04
  -13.49   -4.85   -9.42
    1.56  -11.27   -3.71
    3.47  -14.08   -0.67
   -7.74  -10.05   -1.37
   -7.26   -9.84    4.85
   -3.25   -9.42    7.99
   -0.63  -11.56   -4.06
   -1.71  -13.10   -1.40
    3.32  -13.11    2.16
   -0.96  -13.47   -9.49
   -6.78   -9.44   -4.12
  -10.93   -9.51    9.49
  -13.12   -5.23   -6.35
   -5.23  -11.61   -8.48
   -8.48  -10.78    6.65
    0.01  -11.28   -6.49
   -9.51   -9.38    2.35
    2.31  -12.84   -4.09
  -12.84   -4.72   -8.06
   -9.29   -8.45    0.60
  -10.51   -8.39    0.07
    4.10  -12.93    5.43
   -3.69  -11.90   -7.41
   -1.56  -14.41   -5.80
  -10.94   -6.87    6.95
   -5.98  -10.40    5.02
   -7.79  -12.22   -8.54
   -4.55  -13.07   -3.40
   -0.69  -10.65    9.37
   -1.59  -10.61    8.57
   -5.59  -13.38   -9.50
   -0.74  -10.93   -2.16
   -6.25  -10.96    9.48
   -1.51  -12.06   -8.82
    3.52  -14.07   -4.54
   -2.64  -11.46    4.15
   -0.62  -12.90   -7.22
   -5.37  -11.76    7.55
   -2.96  -14.19   -8.30
   -0.96  -14.47   -3.34
  -10.25   -9.90    0.27
  -11.01   -7.57    1.67
   -0.64  -11.90    2.67
   -4.09  -12.94   -7.54
   -5.39  -13.46    5.44
   -3.57   -9.26    2.39
   -5.96  -12.18   -9.49
   -2.68  -11.60   -8.65
   -8.76   -7.90    3.34
   -6.84  -12.79    1.04
   -6.60  -10.70   -9.46
  -12.37   -5.86    0.15
   -7.42   -7.66    9.49
   -1.27  -11.56    8.51
   -1.82  -13.49   -3.01
  -11.09   -9.16   -9.46
   -8.16   -9.30   -7.27
    3.12  -13.21    7.35
   -2.57   -9.73    4.53
    0.09  -12.57    2.85
   -4.23   -9.21   -8.11
    6.01  -12.12    2.33
   -6.49  -12.96   -7.66
   -5.47  -11.56   -0.58
   -5.02   -9.20   -9.44
   -7.51   -9.66   -4.76
   -7.04  -12.68    7.78
  -13.10   -6.22    8.27
   -3.92  -13.96   -8.15
    2.92  -12.49   -2.99
    4.47  -11.95    0.34
  -13.67   -4.66    7.31
   -1.84  -12.75   -7.24
   -6.56  -10.52   -8.48
   -6.88  -12.01   -0.44
   -2.37  -13.30    1.11
    2.08  -13.36   -8.51
    2.18  -11.84   -3.15
   -5.61   -9.50   -6.46
   -0.05  -13.44    9.50
   -3.14  -11.25    3.15
   -5.56   -9.19    4.90
   -7.90   -8.38   -7.60
   -0.37  -14.50   -0.57
   -1.20  -13.51    6.39
    3.58  -12.42    6.12
   -4.67  -10.48   -3.89
   -6.10   -9.33    8.89
   -7.01  -12.48   -2.51
  -10.98   -7.33    4.76
   -0.82  -13.56   -1.30
   -4.76  -11.23    6.91
  -10.69   -7.69   -7.73
   -1.12  -10.05    1.67
    2.50  -14.08    2.32
  -12.76   -5.07    6.46
  -11.47   -8.87   -2.86
   -5.98  -10.41   -6.02
   -9.67   -8.33    7.68
   -6.82  -10.79    0.15
    3.04  -12.54   -5.98
   -8.07   -9.50    6.58
    2.29  -13.39    5.00
    4.12  -13.85   -5.86
    3.63  -13.06   -0.77
    3.21  -12.06    3.83
   -3.92  -12.85    3.05
  -12.69   -7.02   -1.23
   -3.65   -9.96   -0.16
    2.63  -12.14    6.28
   -9.06   -8.67    5.81
    3.48  -13.26   -7.09
   -8.20  -11.94   -2.80
  -10.79   -8.11    9.49
   -5.15  -10.98   -5.98
   -7.78  -10.43    6.01
  -10.99   -9.08   -0.76
   -6.20  -13.03   -1.25
   -5.32   -9.30   -5.41
   -2.63  -10.37   -3.56
   -4.38   -9.94   -9.24
  -12.05   -5.41   -0.70
   -1.07  -14.46    6.11
   -8.43  -10.65   -8.66
    1.58  -11.67   -7.83
  -12.59   -7.18   -5.28
   -0.06  -12.96   -2.67
    0.92  -13.15   -3.69
  -11.08   -9.17   -4.88
  -12.74   -6.92   -0.18
   -8.83  -11.50    4.95
   -4.26   -8.87    4.60
   -2.74  -13.43   -6.72
    2.73  -13.11    1.34
  -11.33   -7.61   -2.50
    1.75  -13.16   -0.71
    4.57  -13.76    1.77
   -2.66  -13.49   -3.76
   -0.46  -13.90    8.72
   -4.39  -13.82   -4.04
  -10.03   -9.19    8.03
   -0.08  -14.50    6.31
   -1.36  -14.42   -0.52
   -6.22  -10.07   -1.23
  -12.75   -6.90   -4.33
   -1.06  -10.92   -7.91
    1.49  -11.35    5.07
   -5.58  -12.53    6.70
   -1.23  -11.37   -9.50
   -4.77  -12.15   -7.78
  -13.14   -6.14    5.10
  -10.18  -10.08   -2.69
   -1.83  -13.16   -4.22
   -5.58  -13.39    8.53
   -3.47  -14.08   -5.11
   -5.03  -10.73   -8.92
   -2.52  -14.28   -5.36
   -8.23  -11.94    5.62
   -3.76  -11.81   -5.21
  -12.66   -6.32    7.21
   -2.35   -9.98   -2.69
    5.83  -12.63    7.80
  -10.27   -8.02    4.62
   -9.87  -10.60   -9.06
    3.58  -13.09    9.50
    1.09  -12.91    8.57
   -9.89   -7.74   -5.64
   -4.34  -10.76    8.61
    3.43  -11.60    2.76
   -7.10  -12.62    2.00
   -7.77  -12.24    7.25
    4.48  -12.78   -8.77
  -11.00   -7.09   -4.63
  -13.02   -4.14    8.05
   -0.05  -12.37   -4.13
   -8.60   -8.23   -8.39
   -3.62   -9.61   -2.31
   -5.32  -11.33    9.48
  -11.33   -9.04   -3.92
   -0.75  -14.48    3.87
   -1.27  -10.23    4.72
  -13.09   -6.18   -1.68
   -7.78  -11.38   -4.75
  -11.79   -8.44   -9.50
    1.10  -11.61   -8.91
  -12.86   -6.66   -3.08
   -5.29  -12.57   -6.41
   -5.17  -10.83    5.41
   -8.41  -11.81   -9.50
   -8.83   -7.59   -9.50
  -12.44   -6.83   -2.19
   -1.22  -11.12    1.44
   -1.96  -14.35   -7.65
   -9.08   -7.47   -7.95
    1.18  -12.56    9.50
   -0.43  -10.51    4.07
  -12.38   -5.68   -7.85
   -3.59   -9.79    4.78
  -13.08   -6.20    9.50
   -0.69  -11.03    3.24
[...]
POINT_DATA 2000
SCALARS radius float
LOOKUP_TABLE default
  0.500000000000000     
  0.500000000000000     
  0.500000000000000     
  0.500000000000000     
  0.500000000000000     
  0.500000000000000     
  0.500000000000000     
  0.500000000000000     
  0.500000000000000     
  0.500000000000000     
  0.500000000000000     
  0.500000000000000     
  0.500000000000000     
  0.500000000000000     
  0.500000000000000     
  0.500000000000000     
  0.500000000000000     
  0.500000000000000     
  0.500000000000000     
  0.500000000000000     
  0.500000000000000     
  0.500000000000000     
  0.500000000000000     
  0.500000000000000     
  0.500000000000000     
  0.500000000000000     
  0.500000000000000     
  0.500000000000000     
  0.500000000000000     
  0.500000000000000     
  0.500000000000000     
  0.500000000000000     
  0.500000000000000     
  0.500000000000000     
  0.500000000000000     
  0.500000000000000     
  0.500000000000000     
  0.500000000000000     
  0.500000000000000     
  0.500000000000000     
  0.500000000000000     
  0.500000000000000     
  0.500000000000000     
  0.500000000000000     
  0.500000000000000     
  0.500000000000000     
  0.500000000000000     
  0.500000000000000     
  0.500000000000000     
  0.500000000000000     
  0.500000000000000     
  0.500000000000000     
  0.500000000000000     
  0.500000000000000     
  0.500000000000000     
  0.500000000000000     
  0.500000000000000     
  0.500000000000000     
  0.500000000000000     
  0.500000000000000     
  0.500000000000000     
  0.500000000000000     
  0.500000000000000     
  0.500000000000000     
  0.500000000000000     
  0.500000000000000     
  0.500000000000000     
  0.500000000000000     
  0.500000000000000     
  0.500000000000000     
  0.500000000000000     
  0.500000000000000     
  0.500000000000000     
  0.500000000000000     
  0.500000000000000     
  0.500000000000000     
  0.500000000000000     
  0.500000000000000     
  0.500000000000000     
  0.500000000000000     
  0.500000000000000     
  0.500000000000000     
  0.500000000000000     
  0.500000000000000     
  0.500000000000000     
  0.500000000000000     
  0.500000000000000     
  0.500000000000000     
  0.500000000000000     
  0.500000000000000     
  0.500000000000000     
  0.500000000000000     
  0.500000000000000     
  0.500000000000000     
  0.500000000000000     
  0.500000000000000     
  0.500000000000000     
  0.500000000000000     
  0.500000000000000     
  0.500000000000000     
  0.500000000000000     
  0.500000000000000     
  0.500000000000000     
  0.500000000000000     
  0.500000000000000     
  0.500000000000000     
  0.500000000000000     
  0.500000000000000     
  0.500000000000000     
  0.500000000000000     
  0.500000000000000     
  0.500000000000000     
  0.500000000000000     
  0.500000000000000     
  0.500000000000000     
  0.500000000000000     
  0.500000000000000     
  0.500000000000000     
  0.500000000000000     
  0.500000000000000     
  0.500000000000000     
  0.500000000000000     
  0.500000000000000     
  0.500000000000000     
  0.500000000000000     
  0.500000000000000     
  0.500000000000000     
  0.500000000000000     
  0.500000000000000     
  0.500000000000000     
  0.500000000000000     
  0.500000000000000     
  0.500000000000000     
  0.500000000000000     
  0.500000000000000     
  0.500000000000000     
  0.500000000000000     
  0.500000000000000     
  0.500000000000000     
  0.500000000000000     
  0.500000000000000     
  0.500000000000000     
  0.500000000000000     
  0.500000000000000     
  0.500000000000000     
  0.500000000000000     
  0.500000000000000     
  0.500000000000000     
  0.500000000000000     
  0.500000000000000     
  0.500000000000000     
  0.500000000000000     
  0.500000000000000     
  0.500000000000000     
  0.500000000000000     
  0.500000000000000     
  0.500000000000000     
  0.500000000000000     
  0.500000000000000     
  0.500000000000000     
  0.500000000000000     
  0.500000000000000     
  0.500000000000000     
  0.500000000000000     
  0.500000000000000     
  0.500000000000000     
  0.500000000000000     
  0.500000000000000     
  0.500000000000000     
  0.500000000000000     
  0.500000000000000     
  0.500000000000000     
  0.500000000000000     
  0.500000000000000     
  0.500000000000000     
  0.500000000000000     
  0.500000000000000     
  0.500000000000000     
  0.500000000000000     
  0.500000000000000     
  0.500000000000000     
  0.500000000000000     
  0.500000000000000     
  0.500000000000000     
  0.500000000000000     
  0.500000000000000     
  0.500000000000000     
  0.500000000000000     
  0.500000000000000     
  0.500000000000000     
  0.500000000000000     
  0.500000000000000     
  0.500000000000000     
  0.500000000000000     
  0.500000000000000     
  0.500000000000000     
  0.500000000000000     
  0.500000000000000     
  0.500000000000000     
  0.500000000000000     
  0.500000000000000     
  0.500000000000000     
  0.500000000000000     
  0.500000000000000     
  0.500000000000000     
  0.500000000000000     
  0.500000000000000     
  0.500000000000000     
  0.500000000000000     
  0.500000000000000     
  0.500000000000000     
  0.500000000000000     
  0.500000000000000     
  0.500000000000000     
  0.500000000000000     
  0.500000000000000     
  0.500000000000000     
  0.500000000000000     
  0.500000000000000     
  0.500000000000000     
  0.500000000000000     
  0.500000000000000     
  0.500000000000000     
  0.500000000000000     
  0.500000000000000     
  0.500000000000000     
  0.500000000000000     
  0.500000000000000     
  0.500000000000000     
  0.500000000000000     
  0.500000000000000     
  0.500000000000000     
  0.500000000000000     
  0.500000000000000     
  0.500000000000000     
  0.500000000000000     
  0.500000000000000     
  0.500000000000000     
  0.500000000000000     
  0.500000000000000     
  0.500000000000000     
  0.500000000000000     
  0.500000000000000     
  0.500000000000000     
  0.500000000000000     
  0.500000000000000     
  0.500000000000000     
  0.500000000000000     
  0.500000000000000     
  0.500000000000000     
  0.500000000000000     
  0.500000000000000     
  0.500000000000000     
  0.500000000000000     
  0.500000000000000     
  0.500000000000000     
  0.500000000000000     
  0.500000000000000     
  0.500000000000000     
  0.500000000000000     
  0.500000000000000     
  0.500000000000000     
  0.500000000000000     
  0.500000000000000     
  0.500000000000000     
  0.500000000000000     
  0.500000000000000     
  0.500000000000000     
  0.500000000000000     
  0.500000000000000     
  0.500000000000000     
  0.500000000000000     
  0.500000000000000     
  0.500000000000000     
  0.500000000000000     
  0.500000000000000     
  0.500000000000000     
  0.500000000000000     
  0.500000000000000     
  0.500000000000000     
  0.500000000000000     
  0.500000000000000     
  0.500000000000000     
  0.500000000000000     
  0.500000000000000     
  0.500000000000000     
  0.500000000000000     
  0.500000000000000     
  0.500000000000000     
  0.500000000000000     
  0.500000000000000     
  0.500000000000000     
  0.500000000000000     
  0.500000000000000     
  0.500000000000000     
  0.500000000000000     
  0.500000000000000     
  0.500000000000000     
  0.500000000000000     
  0.500000000000000     
  0.500000000000000     
  0.500000000000000     
  0.500000000000000     
  0.500000000000000     
  0.500000000000000     
  0.500000000000000     
  0.500000000000000     
  0.500000000000000     
  0.500000000000000     
  0.500000000000000     
  0.500000000000000     
  0.500000000000000     
  0.500000000000000     
  0.500000000000000     
  0.500000000000000     
  0.500000000000000     
  0.500000000000000     
  0.500000000000000     
  0.500000000000000     
  0.500000000000000     
  0.500000000000000     
  0.500000000000000     
  0.500000000000000     
  0.500000000000000     
  0.500000000000000     
  0.500000000000000     
  0.500000000000000     
  0.500000000000000     
  0.500000000000000     
  0.500000000000000     
  0.500000000000000     
  0.500000000000000     
  0.500000000000000     
  0.500000000000000     
  0.500000000000000     
  0.500000000000000     
  0.500000000000000     
  0.500000000000000     
  0.500000000000000     
  0.500000000000000     
  0.500000000000000     
  0.500000000000000     
  0.500000000000000     
  0.500000000000000     
  0.500000000000000     
  0.500000000000000     
  0.500000000000000     
  0.500000000000000     
  0.500000000000000     
  0.500000000000000     
  0.500000000000000     
  0.500000000000000     
  0.500000000000000     
  0.500000000000000     
  0.500000000000000     
  0.500000000000000     
  0.500000000000000     
  0.500000000000000     
  0.500000000000000     
  0.500000000000000     
  0.500000000000000     
  0.500000000000000     
  0.500000000000000     
  0.500000000000000     
  0.500000000000000     
  0.500000000000000     
  0.500000000000000     
  0.500000000000000     
  0.500000000000000     
  0.500000000000000     
  0.500000000000000     
  0.500000000000000     
  0.500000000000000     
  0.500000000000000     
  0.500000000000000     
  0.500000000000000     
  0.500000000000000     
  0.500000000000000     
  0.500000000000000     
  0.500000000000000     
  0.500000000000000     
  0.500000000000000     
  0.500000000000000     
  0.500000000000000     
  0.500000000000000     
  0.500000000000000     
  0.500000000000000     
  0.500000000000000     
  0.500000000000000     
  0.500000000000000     
  0.500000000000000     
  0.500000000000000     
  0.500000000000000     
  0.500000000000000     
  0.500000000000000     
  0.500000000000000     
  0.500000000000000     
  0.500000000000000     
  0.500000000000000     
  0.500000000000000     
  0.500000000000000     
  0.500000000000000     
  0.500000000000000     
  0.500000000000000     
  0.500000000000000     
  0.500000000000000     
  0.500000000000000     
  0.500000000000000     
  0.500000000000000     
  0.500000000000000     
  0.500000000000000     
  0.500000000000000     
  0.500000000000000     
  0.500000000000000     
  0.500000000000000     
  0.500000000000000     
  0.500000000000000     
  0.500000000000000     
  0.500000000000000     
  0.500000000000000     
  0.500000000000000     
  0.500000000000000     
  0.500000000000000     
  0.500000000000000     
  0.500000000000000     
  0.500000000000000     
  0.500000000000000     
  0.500000000000000     
  0.500000000000000     
  0.500000000000000     
  0.500000000000000     
  0.500000000000000     
  0.500000000000000     
  0.500000000000000     
  0.500000000000000     
  0.500000000000000     
  0.500000000000000     
  0.500000000000000     
  0.500000000000000     
  0.500000000000000     
  0.500000000000000     
  0.500000000000000     
  0.500000000000000     
  0.500000000000000     
  0.500000000000000     
  0.500000000000000     
  0.500000000000000     
  0.500000000000000     
  0.500000000000000     
  0.500000000000000     
  0.500000000000000     
  0.500000000000000     
  0.500000000000000     
  0.500000000000000     
  0.500000000000000     
  0.500000000000000     
  0.500000000000000     
  0.500000000000000     
  0.500000000000000     
  0.500000000000000     
  0.500000000000000     
  0.500000000000000     
  0.500000000000000     
  0.500000000000000     
  0.500000000000000     
  0.500000000000000     
  0.500000000000000     
  0.500000000000000     
  0.500000000000000     
  0.500000000000000     
  0.500000000000000     
  0.500000000000000     
  0.500000000000000     
  0.500000000000000     
  0.500000000000000     
  0.500000000000000     
  0.500000000000000     
  0.500000000000000     
  0.500000000000000     
  0.500000000000000     
  0.500000000000000     
  0.500000000000000     
  0.500000000000000     
  0.500000000000000     
  0.500000000000000     
  0.500000000000000     
  0.500000000000000     
  0.500000000000000     
  0.500000000000000     
  0.500000000000000     
  0.500000000000000     
  0.500000000000000     
  0.500000000000000     
  0.500000000000000     
  0.500000000000000     
  0.500000000000000     
  0.500000000000000     
  0.500000000000000     
  0.500000000000000     
  0.500000000000000     
  0.500000000000000     
  0.500000000000000     
  0.500000000000000     
  0.500000000000000     
  0.500000000000000     
  0.500000000000000     
  0.500000000000000     
  0.500000000000000     
  0.500000000000000     
  0.500000000000000     
  0.500000000000000     
  0.500000000000000     
  0.500000000000000     
  0.500000000000000     
  0.500000000000000     
  0.500000000000000     
  0.500000000000000     
  0.500000000000000     
  0.500000000000000     
  0.500000000000000     
  0.500000000000000     
  0.500000000000000     
  0.500000000000000     
  0.500000000000000     
  0.500000000000000     
  0.500000000000000     
  0.500000000000000     
  0.500000000000000     
  0.500000000000000     
  0.500000000000000     
  0.500000000000000     
  0.500000000000000     
  0.500000000000000     
  0.500000000000000     
  0.500000000000000     
  0.500000000000000     
  0.500000000000000     
  0.500000000000000     
  0.500000000000000     
  0.500000000000000     
  0.500000000000000     
  0.500000000000000     
  0.500000000000000     
  0.500000000000000     
  0.500000000000000     
  0.500000000000000     
  0.500000000000000     
  0.500000000000000     
  0.500000000000000     
  0.500000000000000     
  0.500000000000000     
  0.500000000000000     
  0.500000000000000     
  0.500000000000000     
  0.500000000000000     
  0.500000000000000     
  0.500000000000000     
  0.500000000000000     
  0.500000000000000     
  0.500000000000000     
  0.500000000000000     
  0.500000000000000     
  0.500000000000000     
  0.500000000000000     
  0.500000000000000     
  0.500000000000000     
  0.500000000000000     
  0.500000000000000     
  0.500000000000000     
  0.500000000000000     
  0.500000000000000     
  0.500000000000000     
  0.500000000000000     
  0.500000000000000     
  0.500000000000000     
  0.500000000000000     
  0.500000000000000     
  0.500000000000000     
  0.500000000000000     
  0.500000000000000     
  0.500000000000000     
  0.500000000000000     
  0.500000000000000     
  0.500000000000000     
  0.500000000000000     
  0.500000000000000     
  0.500000000000000     
  0.500000000000000     
  0.500000000000000     
  0.500000000000000     
  0.500000000000000     
  0.500000000000000     
  0.500000000000000     
  0.500000000000000     
  0.500000000000000     
  0.500000000000000     
  0.500000000000000     
  0.500000000000000     
  0.500000000000000     
  0.500000000000000     
  0.500000000000000     
  0.500000000000000     
  0.500000000000000     
  0.500000000000000     
  0.500000000000000     
  0.500000000000000     
  0.500000000000000     
  0.500000000000000     
  0.500000000000000     
  0.500000000000000     
  0.500000000000000     
  0.500000000000000     
  0.500000000000000     
  0.500000000000000     
  0.500000000000000     
  0.500000000000000     
  0.500000000000000     
  0.500000000000000     
  0.500000000000000     
  0.500000000000000     
  0.500000000000000     
  0.500000000000000     
  0.500000000000000     
  0.500000000000000     
  0.500000000000000     
  0.500000000000000     
  0.500000000000000     
  0.500000000000000     
  0.500000000000000     
  0.500000000000000     
  0.500000000000000     
  0.500000000000000     
  0.500000000000000     
  0.500000000000000     
  0.500000000000000     
  0.500000000000000     
  0.500000000000000     
  0.500000000000000     
  0.500000000000000     
  0.500000000000000     
  0.500000000000000     
  0.500000000000000     
  0.500000000000000     
  0.500000000000000     
  0.500000000000000     
  0.500000000000000     
  0.500000000000000     
  0.500000000000000     
  0.500000000000000     
  0.500000000000000     
  0.500000000000000     
  0.500000000000000     
  0.500000000000000     
  0.500000000000000     
  0.500000000000000     
  0.500000000000000     
  0.500000000000000     
  0.500000000000000     
  0.500000000000000     
  0.500000000000000     
  0.500000000000000     
  0.500000000000000     
  0.500000000000000     
  0.500000000000000     
  0.500000000000000     
  0.500000000000000     
  0.500000000000000     
  0.500000000000000     
  0.500000000000000     
  0.500000000000000     
  0.500000000000000     
  0.500000000000000     
  0.500000000000000     
  0.500000000000000     
  0.500000000000000     
  0.500000000000000     
  0.500000000000000     
  0.500000000000000     
  0.500000000000000     
  0.500000000000000     
  0.500000000000000     
  0.500000000000000     
  0.500000000000000     
  0.500000000000000     
  0.500000000000000     
  0.500000000000000     
  0.500000000000000     
  0.500000000000000     
  0.500000000000000     
  0.500000000000000     
  0.500000000000000     
  0.500000000000000     
  0.500000000000000     
  0.500000000000000     
  0.500000000000000     
  0.500000000000000     
  0.500000000000000     
  0.500000000000000     
  0.500000000000000     
  0.500000000000000     
  0.500000000000000     
  0.500000000000000     
  0.500000000000000     
  0.500000000000000     
  0.500000000000000     
  0.500000000000000     
  0.500000000000000     
  0.500000000000000     
  0.500000000000000     
  0.500000000000000     
  0.500000000000000     
  0.500000000000000     
  0.500000000000000     
  0.500000000000000     
  0.500000000000000     
  0.500000000000000     
  0.500000000000000     
  0.500000000000000     
  0.500000000000000     
  0.500000000000000     
  0.500000000000000     
  0.500000000000000     
  0.500000000000000     
  0.500000000000000     
  0.500000000000000     
  0.500000000000000     
  0.500000000000000     
  0.500000000000000     
  0.500000000000000     
  0.500000000000000     
  0.500000000000000     
  0.500000000000000     
  0.500000000000000     
  0.500000000000000     
  0.500000000000000     
  0.500000000000000     
  0.500000000000000     
  0.500000000000000     
  0.500000000000000     
  0.500000000000000     
  0.500000000000000     
  0.500000000000000     
  0.500000000000000     
  0.500000000000000     
  0.500000000000000     
  0.500000000000000     
  0.500000000000000     
  0.500000000000000     
  0.500000000000000     
  0.500000000000000     
  0.500000000000000     
  0.500000000000000     
  0.500000000000000     
  0.500000000000000     
  0.500000000000000     
  0.500000000000000     
  0.500000000000000     
  0.500000000000000     
  0.500000000000000     
  0.500000000000000     
  0.500000000000000     
  0.500000000000000     
  0.500000000000000     
  0.500000000000000     
  0.500000000000000     
  0.500000000000000     
  0.500000000000000     
  0.500000000000000     
  0.500000000000000     
  0.500000000000000     
  0.500000000000000     
  0.500000000000000     
  0.500000000000000     
  0.500000000000000     
  0.500000000000000     
  0.500000000000000     
  0.500000000000000     
  0.500000000000000     
  0.500000000000000     
  0.500000000000000     
  0.500000000000000     
  0.500000000000000     
  0.500000000000000     
  0.500000000000000     
  0.500000000000000     
  0.500000000000000     
  0.500000000000000     
  0.500000000000000     
  0.500000000000000     
  0.500000000000000     
  0.500000000000000     
  0.500000000000000     
  0.500000000000000     
  0.500000000000000     
  0.500000000000000     
  0.500000000000000     
  0.500000000000000     