# vtk DataFile Version 5.1
Data.vtk
ASCII
DATASET UNSTRUCTURED_GRID
 
POINTS 2000 float
    1.67  -13.51    0.76
    9.97   -9.18   -0.09
   -0.29  -14.50    5.74
    1.54  -13.49   -1.76
   -3.80  -11.76    7.31
    0.71  -13.66   -8.80
    4.32  -10.35   -8.60
   -1.03  -13.18   -8.59
    4.95  -10.64   -3.94
    7.68  -11.17    0.89
   -1.48  -13.19   -1.05
    0.84  -14.48   -8.24
    4.30  -12.47    0.27
    0.67  -13.72    2.98
    3.44  -12.56   -0.87
    6.65  -10.46    2.14
    5.65  -10.03    5.53
    2.23  -13.64    7.58
   12.18   -7.87    8.09
    1.96  -13.56   -3.90
    1.95  -14.37   -1.49
   10.73   -9.76    6.93
   -1.39  -11.54   -8.74
    8.66  -11.63   -7.33
    6.86  -11.88    1.68
   -2.28  -11.94   -0.19
    3.28  -14.12    9.50
    1.26  -12.43    7.46
   -6.41  -11.71    1.74
   -5.58  -13.39    4.17
    2.12  -14.34   -3.30
    3.78  -10.96   -0.81
    2.11  -10.84    5.15
    3.97  -13.19   -3.16
   -4.16  -13.89   -3.74
    5.80  -12.58    8.02
    0.30  -12.98    7.29
   -0.75  -12.87    5.97
    0.70  -11.34    0.88
    1.42  -13.74    3.64
    8.57   -8.25    5.02
   -2.89  -14.21   -0.23
   -4.50  -11.31   -5.54
    2.01  -14.36    2.16
   -9.09  -11.30   -7.07
   -0.04  -10.45    8.14
    5.77  -10.61    4.73
    3.55  -12.24   -5.50
    9.48   -8.19    6.87
    3.57  -11.96   -9.50
    6.21  -12.20   -8.40
   -7.45  -11.45    9.50
    2.42  -11.16    6.66
    7.85  -11.00    2.81
    1.02  -11.27    5.15
    6.54  -10.25   -1.55
    1.24  -11.60   -4.35
   -2.24  -12.37    3.37
   -6.42  -13.00   -0.57
   -5.24  -12.29   -2.77
   -3.89  -12.57   -0.56
   -3.91  -11.72    1.18
    3.39  -11.00    6.87
    9.24  -11.17    4.46
    8.53  -11.73    2.71
    5.45  -11.77    0.56
    0.08  -14.50    0.05
    7.81  -11.40    4.14
    4.54  -13.38    0.62
    4.02  -12.84   -6.14
   -9.71  -10.72    7.61
    7.15  -12.61   -7.50
    0.98  -13.70   -3.67
    4.91  -10.18    4.44
    8.19   -9.16    4.89
   -1.56  -14.42   -6.12
    5.07   -9.39    5.03
   -0.78  -10.83   -8.31
    6.44  -11.38    3.61
    5.41   -9.82   -4.30
    7.24   -8.67    7.23
    6.50  -10.09    6.41
    5.26  -12.59    0.02
    1.95  -10.82   -8.45
    7.02  -12.69   -8.71
    5.34  -11.85   -7.15
   -3.85  -13.98   -0.06
    1.43  -10.77   -4.88
   -0.02  -11.87    1.33
    9.05   -7.91    7.73
    0.95  -14.44    0.53
    3.04  -11.56   -7.48
   -4.91  -12.39   -1.83
   -3.61  -13.16    5.92
    9.24  -11.17    5.74
    1.00  -11.45   -0.07
    2.51  -11.88    3.68
   -1.94  -12.64    4.64
    9.48  -10.97   -0.39
   -6.10  -12.12   -1.90
   -2.58  -14.27    4.20
   10.04   -9.44   -4.46
    1.89  -10.96    3.37
    4.66  -10.07    5.64
   -1.63  -12.18    2.60
    2.27  -11.30   -6.85
   -3.61  -13.28    8.47
    3.42  -12.38   -3.37
   -1.41  -14.43    6.99
    5.61  -11.88    3.87
   -6.50  -11.88    7.29
    5.53  -11.44   -1.77
   11.35   -9.02   -3.94
    3.31  -10.64   -6.38
    9.95  -10.55    4.13
    6.24  -10.30   -6.93
   -3.53  -14.06   -1.95
   -2.47  -12.67   -2.94
   10.05  -10.45    7.18
   -3.13  -14.16    9.46
    8.56   -8.58    6.84
   -5.90  -13.24    7.53
    6.93  -10.76    7.06
    3.17  -10.79    2.62
   -6.09  -12.38    0.67
   -1.07  -11.19   -4.64
    8.09   -9.66   -7.41
    1.69  -14.40    1.21
   10.56   -8.96   -9.10
    6.89   -9.58   -7.16
    2.91  -13.57   -4.21
    5.96  -11.13    2.77
    1.59  -11.59    1.25
    4.03   -9.92    1.10
   -7.04  -12.68   -9.23
   -3.40  -12.31    8.33
    3.27  -14.13   -6.67
    4.69  -13.72   -5.40
   -1.50  -11.85    9.50
    7.17  -12.60    6.07
    5.37  -12.46   -3.82
    1.36  -14.44    2.92
    2.28  -13.07   -2.64
   -4.37  -13.05    6.56
   -1.71  -12.77    6.21
    1.70  -13.75    8.42
    1.10  -13.45    6.30
   -1.41  -12.03   -4.21
    3.74  -13.27   -7.86
    2.09  -12.60   -8.84
    8.58  -10.70    6.49
   -4.55  -12.49    1.20
    1.06  -11.96    4.43
    4.71  -10.91   -2.03
   -0.29  -12.83   -5.05
   -3.93  -13.96    2.93
   -2.09  -13.62    4.78
   -1.90  -11.25    5.56
   -4.46  -13.80    8.55
    9.75   -8.76    3.94
    2.94  -11.96   -4.75
    0.44  -10.47    6.88
    6.38  -11.23   -8.57
    9.25  -10.31    0.99
   -1.18  -10.69   -9.21
    8.04   -9.89    1.78
    0.81  -13.91   -0.30
    8.31  -10.77   -8.75
    5.17  -10.90   -0.19
   -3.31  -12.17   -6.36
    9.86  -10.45   -1.15
   -6.64  -12.00   -8.52
    3.93  -10.24    9.41
   -3.78  -11.99   -5.49
   -0.08  -11.92    3.44
    6.76  -10.44   -0.60
    1.30  -12.10    8.90
   -7.82  -11.33    8.04
    2.86  -11.16   -1.16
    3.45  -12.60    2.54
    2.98  -14.19   -5.71
    6.34  -10.27    1.17
    9.85   -9.55   -1.59
    2.56  -12.00   -9.50
    6.59  -10.88    9.50
   10.38  -10.12   -5.11
   -0.82  -12.68    0.15
    1.76  -14.39   -6.87
   -3.74  -14.01    7.80
   -0.79  -14.48   -1.84
    5.13  -12.35   -1.82
   -0.89  -13.94    8.04
   10.76   -8.69    9.41
    3.38  -13.86   -9.50
    1.95  -12.05   -5.12
    6.31  -11.31    7.62
   -3.63  -12.77   -7.68
    2.71  -13.44   -7.30
   -1.20  -13.55   -0.16
   11.11   -9.32   -3.00
    5.14  -10.47    6.42
    2.32  -10.37    7.27
    9.28  -11.14   -3.95
    5.34  -11.78   -0.85
   -2.03  -14.36    2.54
   -4.42  -12.80   -3.01
    5.56   -9.90   -5.65
    2.18  -12.51    8.62
    7.52   -9.90   -5.48
    6.45  -10.54   -9.29
   -3.30  -11.08    8.21
   -0.97  -12.62   -9.50
    7.27   -8.82    5.09
   -0.65  -13.51   -2.04
   -5.38  -11.79   -5.45
    9.42   -8.81    1.65
    6.83   -9.40    1.06
   -0.37  -12.81    4.84
   -7.66  -12.31   -6.18
   -4.04  -13.87   -1.03
    0.90  -11.00    6.17
   10.00   -9.61    7.72
   -5.25  -12.92   -7.31
    1.44  -11.79   -0.90
    9.84   -9.86    8.78
   -2.13  -10.78    9.50
   -7.99  -12.10   -4.86
   10.24  -10.27   -3.34
   -3.90  -12.23    9.18
    0.16  -10.41   -9.32
   -1.46  -14.43   -5.05
    4.63  -11.68    5.26
    2.51  -13.57   -6.33
   -0.16  -11.26    6.40
   -0.38  -13.78   -7.21
   -4.49  -13.79   -1.96
   -6.00  -12.28    2.84
    7.72   -9.62    0.53
    2.72  -13.59    4.80
   -1.66  -13.04   -7.54
    5.01  -11.29    4.42
   -4.64  -11.25    7.17
    1.00  -12.90   -9.43
    8.02   -9.24   -9.21
    5.30  -10.99    3.51
   -1.71  -13.12    2.26
    3.37  -10.32   -8.27
    9.06  -10.21   -1.86
   -7.80  -12.22    8.97
    2.88  -11.58    8.93
    3.09  -11.91    1.43
   -1.44  -14.43   -9.50
   -1.28  -12.32   -8.12
    4.89  -13.65    7.21
   12.36   -7.58    6.03
    5.69  -11.83    5.80
   -1.75  -13.21   -9.28
    7.19  -12.59    4.53
    2.22  -12.94   -5.61
    4.21  -12.71   -1.67
   11.53   -8.75   -6.93
   -4.74  -12.19   -7.77
   -7.43  -12.45    2.95
   -3.48  -12.35    5.35
   -4.33  -13.74   -5.85
    6.23  -13.09   -6.14
    8.63  -11.66    5.11
   -5.02  -11.50    1.75
    3.09  -12.51   -8.82
   -3.34  -12.07   -8.79
    4.88  -12.67   -0.90
    1.83  -12.05    2.96
   10.44  -10.07   -7.85
    9.59   -8.72   -8.33
   -2.68  -10.90   -6.44
    4.35  -11.97    7.99
    8.42  -10.82    3.61
    6.83   -9.25    7.92
    6.09  -11.28   -6.80
   -3.63  -13.06    0.27
   -2.68  -13.02    6.25
   10.81   -9.66    8.64
    5.43  -12.35   -6.21
   -0.88  -11.06    9.50
   -4.97  -12.99    2.23
    3.28  -10.56    0.95
    3.82  -11.75    0.77
    9.04   -9.53    8.01
    5.76  -11.37   -4.10
    6.58   -9.66    5.51
   -0.62  -13.64    5.34
   -8.89  -11.46    7.79
    1.80  -12.35   -1.65
    6.35  -11.15   -4.95
    7.89   -9.32    6.85
    3.21  -13.57   -0.48
    5.40  -13.46   -7.88
    7.42   -9.94    7.50
    4.17  -13.89    6.56
    3.24  -14.13   -7.80
    2.84  -12.82    1.78
    7.24  -12.56    7.50
    6.93  -10.70    3.07
    5.27  -10.69   -1.16
   11.50   -7.87    2.12
    3.87  -11.66    8.82
    7.42   -9.80    4.96
    7.18  -12.60   -6.48
    2.72  -12.75   -1.69
   -6.82  -12.07    9.04
    4.02  -11.80   -7.49
    8.55  -10.09    4.93
    7.67  -10.27   -0.23
   -7.85  -12.19   -0.01
    0.82  -11.58   -7.67
    6.73  -10.28   -3.68
    3.87  -11.10   -9.09
    9.80   -9.38   -3.49
   -5.84  -13.27    2.89
   -3.63  -11.77   -7.75
    1.49  -12.14   -8.17
    3.56  -10.80   -4.03
    3.59  -12.96    1.13
    3.39  -12.88   -4.74
   -4.34  -11.53   -4.51
   11.72   -8.54   -1.62
    4.67  -12.15    3.64
    8.46   -8.85    5.80
   -0.93  -13.02   -6.85
   -2.88  -13.32    4.10
    2.94  -11.21   -2.15
    0.36  -13.64    0.61
   -1.90  -14.37   -0.29
    4.40  -11.73   -1.55
    8.89  -10.18    8.75
   -2.00  -13.46    0.43
   -6.37  -10.89    7.23
   -0.94  -14.47    4.07
   -2.68  -12.80    0.12
    8.59  -10.53   -0.53
    4.81  -11.63   -3.94
   10.69   -8.39   -7.33
   10.31   -9.44    6.08
    0.36  -12.20    5.11
    4.62  -10.89   -7.81
    1.52  -11.95   -6.97
   -0.38  -10.87    7.30
   -0.44  -11.79    0.43
    4.16  -12.90   -4.10
    0.68  -14.48    7.48
   -4.00  -13.94   -4.92
    1.55  -12.07   -9.50
   -3.28  -13.37   -0.61
   -5.05  -12.53    4.19
    2.15  -11.93   -6.09
    4.38  -10.70    3.77
    6.80   -9.87   -2.50
    8.33  -10.91    9.15
   -4.93  -11.55    5.16
   -7.15  -12.62   -7.00
    2.05  -10.44    9.50
    6.94  -11.81    9.50
    7.13  -10.78   -4.45
    4.24  -13.86    9.50
   12.31   -7.66    9.50
   -0.79  -11.37    3.00
   -5.59  -13.38    9.33
    7.80  -11.35   -7.76
   -0.36  -11.82   -4.97
   -2.16  -11.09    7.96
    5.42  -12.84   -7.09
   -6.43  -11.93   -9.50
    7.62  -11.42   -3.85
    3.54  -13.16    9.45
   -3.12  -12.22   -1.52
   -3.55  -14.06    4.32
    8.67   -9.54    4.10
    2.60  -10.98   -3.83
    4.93  -12.02   -4.85
   -1.31  -13.89   -7.94
    8.80   -9.86   -9.16
    2.16  -11.42   -0.32
    7.25  -10.68   -2.11
    9.53   -9.78    6.65
   -1.54  -12.37   -2.70
   -3.63  -11.42   -9.50
    6.20  -11.09   -1.12
    8.11  -12.02    0.31
    3.94  -11.53   -3.46
    0.26  -10.83   -8.02
    8.49  -11.75    8.57
   10.12  -10.38    5.80
    4.31  -10.88   -4.68
   12.46   -7.42    5.05
    0.62  -11.79    6.72
    9.58   -9.72    3.71
[...]
POINT_DATA 2000
SCALARS radius float
LOOKUP_TABLE default
  0.500000000000000     
  0.500000000000000     
  0.500000000000000     
  0.500000000000000     
  0.500000000000000     
  0.500000000000000     
  0.500000000000000     
  0.500000000000000     
  0.500000000000000     
  0.500000000000000     
  0.500000000000000     
  0.500000000000000     
  0.500000000000000     
  0.500000000000000     
  0.500000000000000     
  0.500000000000000     
  0.500000000000000     
  0.500000000000000     
  0.500000000000000     
  0.500000000000000     
  0.500000000000000     
  0.500000000000000     
  0.500000000000000     
  0.500000000000000     
  0.500000000000000     
  0.500000000000000     
  0.500000000000000     
  0.500000000000000     
  0.500000000000000     
  0.500000000000000     
  0.500000000000000     
  0.500000000000000     
  0.500000000000000     
  0.500000000000000     
  0.500000000000000     
  0.500000000000000     
  0.500000000000000     
  0.500000000000000     
  0.500000000000000     
  0.500000000000000     
  0.500000000000000     
  0.500000000000000     
  0.500000000000000     
  0.500000000000000     
  0.500000000000000     
  0.500000000000000     
  0.500000000000000     
  0.500000000000000     
  0.500000000000000     
  0.500000000000000     
  0.500000000000000     
  0.500000000000000     
  0.500000000000000     
  0.500000000000000     
  0.500000000000000     
  0.500000000000000     
  0.500000000000000     
  0.500000000000000     
  0.500000000000000     
  0.500000000000000     
  0.500000000000000     
  0.500000000000000     
  0.500000000000000     
  0.500000000000000     
  0.500000000000000     
  0.500000000000000     
  0.500000000000000     
  0.500000000000000     
  0.500000000000000     
  0.500000000000000     
  0.500000000000000     
  0.500000000000000     
  0.500000000000000     
  0.500000000000000     
  0.500000000000000     
  0.500000000000000     
  0.500000000000000     
  0.500000000000000     
  0.500000000000000     
  0.500000000000000     
  0.500000000000000     
  0.500000000000000     
  0.500000000000000     
  0.500000000000000     
  0.500000000000000     
  0.500000000000000     
  0.500000000000000     
  0.500000000000000     
  0.500000000000000     
  0.500000000000000     
  0.500000000000000     
  0.500000000000000     
  0.500000000000000     
  0.500000000000000     
  0.500000000000000     
  0.500000000000000     
  0.500000000000000     
  0.500000000000000     
  0.500000000000000     
  0.500000000000000     
  0.500000000000000     
  0.500000000000000     
  0.500000000000000     
  0.500000000000000     
  0.500000000000000     
  0.500000000000000     
  0.500000000000000     
  0.500000000000000     
  0.500000000000000     
  0.500000000000000     
  0.500000000000000     
  0.500000000000000     
  0.500000000000000     
  0.500000000000000     
  0.500000000000000     
  0.500000000000000     
  0.500000000000000     
  0.500000000000000     
  0.500000000000000     
  0.500000000000000     
  0.500000000000000     
  0.500000000000000     
  0.500000000000000     
  0.500000000000000     
  0.500000000000000     
  0.500000000000000     
  0.500000000000000     
  0.500000000000000     
  0.500000000000000     
  0.500000000000000     
  0.500000000000000     
  0.500000000000000     
  0.500000000000000     
  0.500000000000000     
  0.500000000000000     
  0.500000000000000     
  0.500000000000000     
  0.500000000000000     
  0.500000000000000     
  0.500000000000000     
  0.500000000000000     
  0.500000000000000     
  0.500000000000000     
  0.500000000000000     
  0.500000000000000     
  0.500000000000000     
  0.500000000000000     
  0.500000000000000     
  0.500000000000000     
  0.500000000000000     
  0.500000000000000     
  0.500000000000000     
  0.500000000000000     
  0.500000000000000     
  0.500000000000000     
  0.500000000000000     
  0.500000000000000     
  0.500000000000000     
  0.500000000000000     
  0.500000000000000     
  0.500000000000000     
  0.500000000000000     
  0.500000000000000     
  0.500000000000000     
  0.500000000000000     
  0.500000000000000     
  0.500000000000000     
  0.500000000000000     
  0.500000000000000     
  0.500000000000000     
  0.500000000000000     
  0.500000000000000     
  0.500000000000000     
  0.500000000000000     
  0.500000000000000     
  0.500000000000000     
  0.500000000000000     
  0.500000000000000     
  0.500000000000000     
  0.500000000000000     
  0.500000000000000     
  0.500000000000000     
  0.500000000000000     
  0.500000000000000     
  0.500000000000000     
  0.500000000000000     
  0.500000000000000     
  0.500000000000000     
  0.500000000000000     
  0.500000000000000     
  0.500000000000000     
  0.500000000000000     
  0.500000000000000     
  0.500000000000000     
  0.500000000000000     
  0.500000000000000     
  0.500000000000000     
  0.500000000000000     
  0.500000000000000     
  0.500000000000000     
  0.500000000000000     
  0.500000000000000     
  0.500000000000000     
  0.500000000000000     
  0.500000000000000     
  0.500000000000000     
  0.500000000000000     
  0.500000000000000     
  0.500000000000000     
  0.500000000000000     
  0.500000000000000     
  0.500000000000000     
  0.500000000000000     
  0.500000000000000     
  0.500000000000000     
  0.500000000000000     
  0.500000000000000     
  0.500000000000000     
  0.500000000000000     
  0.500000000000000     
  0.500000000000000     
  0.500000000000000     
  0.500000000000000     
  0.500000000000000     
  0.500000000000000     
  0.500000000000000     
  0.500000000000000     
  0.500000000000000     
  0.500000000000000     
  0.500000000000000     
  0.500000000000000     
  0.500000000000000     
  0.500000000000000     
  0.500000000000000     
  0.500000000000000     
  0.500000000000000     
  0.500000000000000     
  0.500000000000000     
  0.500000000000000     
  0.500000000000000     
  0.500000000000000     
  0.500000000000000     
  0.500000000000000     
  0.500000000000000     
  0.500000000000000     
  0.500000000000000     
  0.500000000000000     
  0.500000000000000     
  0.500000000000000     
  0.500000000000000     
  0.500000000000000     
  0.500000000000000     
  0.500000000000000     
  0.500000000000000     
  0.500000000000000     
  0.500000000000000     
  0.500000000000000     
  0.500000000000000     
  0.500000000000000     
  0.500000000000000     
  0.500000000000000     
  0.500000000000000     
  0.500000000000000     
  0.500000000000000     
  0.500000000000000     
  0.500000000000000     
  0.500000000000000     
  0.500000000000000     
  0.500000000000000     
  0.500000000000000     
  0.500000000000000     
  0.500000000000000     
  0.500000000000000     
  0.500000000000000     
  0.500000000000000     
  0.500000000000000     
  0.500000000000000     
  0.500000000000000     
  0.500000000000000     
  0.500000000000000     
  0.500000000000000     
  0.500000000000000     
  0.500000000000000     
  0.500000000000000     
  0.500000000000000     
  0.500000000000000     
  0.500000000000000     
  0.500000000000000     
  0.500000000000000     
  0.500000000000000     
  0.500000000000000     
  0.500000000000000     
  0.500000000000000     
  0.500000000000000     
  0.500000000000000     
  0.500000000000000     
  0.500000000000000     
  0.500000000000000     
  0.500000000000000     
  0.500000000000000     
  0.500000000000000     
  0.500000000000000     
  0.500000000000000     
  0.500000000000000     
  0.500000000000000     
  0.500000000000000     
  0.500000000000000     
  0.500000000000000     
  0.500000000000000     
  0.500000000000000     
  0.500000000000000     
  0.500000000000000     
  0.500000000000000     
  0.500000000000000     
  0.500000000000000     
  0.500000000000000     
  0.500000000000000     
  0.500000000000000     
  0.500000000000000     
  0.500000000000000     
  0.500000000000000     
  0.500000000000000     
  0.500000000000000     
  0.500000000000000     
  0.500000000000000     
  0.500000000000000     
  0.500000000000000     
  0.500000000000000     
  0.500000000000000     
  0.500000000000000     
  0.500000000000000     
  0.500000000000000     
  0.500000000000000     
  0.500000000000000     
  0.500000000000000     
  0.500000000000000     
  0.500000000000000     
  0.500000000000000     
  0.500000000000000     
  0.500000000000000     
  0.500000000000000     
  0.500000000000000     
  0.500000000000000     
  0.500000000000000     
  0.500000000000000     
  0.500000000000000     
  0.500000000000000     
  0.500000000000000     
  0.500000000000000     
  0.500000000000000     
  0.500000000000000     
  0.500000000000000     
  0.500000000000000     
  0.500000000000000     
  0.500000000000000     
  0.500000000000000     
  0.500000000000000     
  0.500000000000000     
  0.500000000000000     
  0.500000000000000     
  0.500000000000000     
  0.500000000000000     
  0.500000000000000     
  0.500000000000000     
  0.500000000000000     
  0.500000000000000     
  0.500000000000000     
  0.500000000000000     
  0.500000000000000     
  0.500000000000000     
  0.500000000000000     
  0.500000000000000     
  0.500000000000000     
  0.500000000000000     
  0.500000000000000     
  0.500000000000000     
  0.500000000000000     
  0.500000000000000     
  0.500000000000000     
  0.500000000000000     
  0.500000000000000     
  0.500000000000000     
  0.500000000000000     
  0.500000000000000     
  0.500000000000000     
  0.500000000000000     
  0.500000000000000     
  0.500000000000000     
  0.500000000000000     
  0.500000000000000     
  0.500000000000000     
  0.500000000000000     
  0.500000000000000     
  0.500000000000000     
  0.500000000000000     
  0.500000000000000     
  0.500000000000000     
  0.500000000000000     
  0.500000000000000     
  0.500000000000000     
  0.500000000000000     
  0.500000000000000     
  0.500000000000000     
  0.500000000000000     
  0.500000000000000     
  0.500000000000000     
  0.500000000000000     
  0.500000000000000     
  0.500000000000000     
  0.500000000000000     
  0.500000000000000     
  0.500000000000000     
  0.500000000000000     
  0.500000000000000     
  0.500000000000000     
  0.500000000000000     
  0.500000000000000     
  0.500000000000000     
  0.500000000000000     
  0.500000000000000     
  0.500000000000000     
  0.500000000000000     
  0.500000000000000     
  0.500000000000000     
  0.500000000000000     
  0.500000000000000     
  0.500000000000000     
  0.500000000000000     
  0.500000000000000     
  0.500000000000000     
  0.500000000000000     
  0.500000000000000     
  0.500000000000000     
  0.500000000000000     
  0.500000000000000     
  0.500000000000000     
  0.500000000000000     
  0.500000000000000     
  0.500000000000000     
  0.500000000000000     
  0.500000000000000     
  0.500000000000000     
  0.500000000000000     
  0.500000000000000     
  0.500000000000000     
  0.500000000000000     
  0.500000000000000     
  0.500000000000000     
  0.500000000000000     
  0.500000000000000     
  0.500000000000000     
  0.500000000000000     
  0.500000000000000     
  0.500000000000000     
  0.500000000000000     
  0.500000000000000     
  0.500000000000000     
  0.500000000000000     
  0.500000000000000     
  0.500000000000000     
  0.500000000000000     
  0.500000000000000     
  0.500000000000000     
  0.500000000000000     
  0.500000000000000     
  0.500000000000000     
  0.500000000000000     
  0.500000000000000     
  0.500000000000000     
  0.500000000000000     
  0.500000000000000     
  0.500000000000000     
  0.500000000000000     
  0.500000000000000     
  0.500000000000000     
  0.500000000000000     
  0.500000000000000     
  0.500000000000000     
  0.500000000000000     
  0.500000000000000     
  0.500000000000000     
  0.500000000000000     
  0.500000000000000     
  0.500000000000000     
  0.500000000000000     
  0.500000000000000     
  0.500000000000000     
  0.500000000000000     
  0.500000000000000     
  0.500000000000000     
  0.500000000000000     
  0.500000000000000     
  0.500000000000000     
  0.500000000000000     
  0.500000000000000     
  0.500000000000000     
  0.500000000000000     
  0.500000000000000     
  0.500000000000000     
  0.500000000000000     
  0.500000000000000     
  0.500000000000000     
  0.500000000000000     
  0.500000000000000     
  0.500000000000000     
  0.500000000000000     
  0.500000000000000     
  0.500000000000000     
  0.500000000000000     
  0.500000000000000     
  0.500000000000000     
  0.500000000000000     
  0.500000000000000     
  0.500000000000000     
  0.500000000000000     
  0.500000000000000     
  0.500000000000000     
  0.500000000000000     
  0.500000000000000     
  0.500000000000000     
  0.500000000000000     
  0.500000000000000     
  0.500000000000000     
  0.500000000000000     
  0.500000000000000     
  0.500000000000000     
  0.500000000000000     
  0.500000000000000     
  0.500000000000000     
  0.500000000000000     
  0.500000000000000     
  0.500000000000000     
  0.500000000000000     
  0.500000000000000     
  0.500000000000000     
  0.500000000000000     
  0.500000000000000     
  0.500000000000000     
  0.500000000000000     
  0.500000000000000     
  0.500000000000000     
  0.500000000000000     
  0.500000000000000     
  0.500000000000000     
  0.500000000000000     
  0.500000000000000     
  0.500000000000000     
  0.500000000000000     
  0.500000000000000     
  0.500000000000000     
  0.500000000000000     
  0.500000000000000     
  0.500000000000000     
  0.500000000000000     
  0.500000000000000     
  0.500000000000000     
  0.500000000000000     
  0.500000000000000     
  0.500000000000000     
  0.500000000000000     
  0.500000000000000     
  0.500000000000000     
  0.500000000000000     
  0.500000000000000     
  0.500000000000000     
  0.500000000000000     
  0.500000000000000     
  0.500000000000000     
  0.500000000000000     
  0.500000000000000     
  0.500000000000000     
  0.500000000000000     
  0.500000000000000     
  0.500000000000000     
  0.500000000000000     
  0.500000000000000     
  0.500000000000000     
  0.500000000000000     
  0.500000000000000     
  0.500000000000000     
  0.500000000000000     
  0.500000000000000     
  0.500000000000000     
  0.500000000000000     
  0.500000000000000     
  0.500000000000000     
  0.500000000000000     
  0.500000000000000     
  0.500000000000000     
  0.500000000000000     
  0.500000000000000     
  0.500000000000000     
  0.500000000000000     
  0.500000000000000     
  0.500000000000000     
  0.500000000000000     
  0.500000000000000     
  0.500000000000000     
  0.500000000000000     
  0.500000000000000     
  0.500000000000000     
  0.500000000000000     
  0.500000000000000     
  0.500000000000000     
  0.500000000000000     
  0.500000000000000     
  0.500000000000000     
  0.500000000000000     
  0.500000000000000     
  0.500000000000000     
  0.500000000000000     
  0.500000000000000     
  0.500000000000000     
  0.500000000000000     
  0.500000000000000     
  0.500000000000000     
  0.500000000000000     
  0.500000000000000     
  0.500000000000000     
  0.500000000000000     
  0.500000000000000     
  0.500000000000000     
  0.500000000000000     
  0.500000000000000     
  0.500000000000000     
  0.500000000000000     
  0.500000000000000     
  0.500000000000000     
  0.500000000000000     
  0.500000000000000     
  0.500000000000000     
  0.500000000000000     
  0.500000000000000     
  0.500000000000000     
  0.500000000000000     
  0.500000000000000     
  0.500000000000000     
  0.500000000000000     
  0.500000000000000     
  0.500000000000000     
  0.500000000000000     
  0.500000000000000     
  0.500000000000000     
  0.500000000000000     
  0.500000000000000     
  0.500000000000000     
  0.500000000000000     
  0.500000000000000     
  0.500000000000000     
  0.500000000000000     
  0.500000000000000     
  0.500000000000000     
  0.500000000000000     
  0.500000000000000     
  0.500000000000000     
  0.500000000000000     
  0.500000000000000     
  0.500000000000000     
  0.500000000000000     
  0.500000000000000     
  0.500000000000000     
  0.500000000000000     
  0.500000000000000     
  0.500000000000000     
  0.500000000000000     
  0.500000000000000     
  0.500000000000000     
  0.500000000000000     
  0.500000000000000     
  0.500000000000000     
  0.500000000000000     
  0.500000000000000     
  0.500000000000000     
  0.500000000000000     
  0.500000000000000     
  0.500000000000000     
  0.500000000000000     
  0.500000000000000     
  0.500000000000000     
  0.500000000000000     
  0.500000000000000     
  0.500000000000000     
  0.500000000000000     
  0.500000000000000     
  0.500000000000000     
  0.500000000000000     
  0.500000000000000     
  0.500000000000000     
  0.500000000000000     
  0.500000000000000     
  0.500000000000000     
  0.500000000000000     
  0.500000000000000     
  0.500000000000000     
  0.500000000000000     
  0.500000000000000     
  0.500000000000000     
  0.500000000000000     
  0.500000000000000     
  0.500000000000000     
  0.500000000000000     
  0.500000000000000     
  0.500000000000000     
  0.500000000000000     
  0.500000000000000     
  0.500000000000000     
  0.500000000000000     
  0.500000000000000     
  0.500000000000000     
  0.500000000000000     
  0.500000000000000     
  0.500000000000000     
  0.500000000000000     
  0.500000000000000     
  0.500000000000000     
  0.500000000000000     
  0.500000000000000     
  0.500000000000000     
  0.500000000000000     
  0.500000000000000     
  0.500000000000000     
  0.500000000000000     
  0.500000000000000     
  0.500000000000000     
  0.500000000000000     
  0.500000000000000     
  0.500000000000000     
  0.500000000000000     
  0.500000000000000     
  0.500000000000000     
  0.500000000000000     
  0.500000000000000     
  0.500000000000000     
  0.500000000000000     
  0.500000000000000     
  0.500000000000000     
  0.500000000000000     
  0.500000000000000     
  0.500000000000000     
  0.500000000000000     
  0.500000000000000     
  0.500000000000000     
  0.500000000000000     
  0.500000000000000     
  0.500000000000000     
  0.500000000000000     
  0.500000000000000     
  0.500000000000000     
  0.500000000000000     
  0.500000000000000     
  0.500000000000000     
  0.500000000000000     
  0.500000000000000     
  0.500000000000000     
  0.500000000000000     
  0.500000000000000     
  0.500000000000000     
  0.500000000000000     
  0.500000000000000     
  0.500000000000000     
  0.500000000000000     
  0.500000000000000     
  0.500000000000000     
  0.500000000000000     
  0.500000000000000     
  0.500000000000000     
  0.500000000000000     
  0.500000000000000     
  0.500000000000000     
  0.500000000000000     
  0.500000000000000     
  0.500000000000000     
  0.500000000000000     
  0.500000000000000     
  0.500000000000000     
  0.500000000000000     
  0.500000000000000     
  0.500000000000000     
  0.500000000000000     
  0.500000000000000     
  0.500000000000000     
  0.500000000000000     
  0.500000000000000     
  0.500000000000000     
  0.500000000000000     
  0.500000000000000     
  0.500000000000000     
  0.500000000000000     
  0.500000000000000     
  0.500000000000000     
  0.500000000000000     
  0.500000000000000     
  0.500000000000000     
  0.500000000000000     
  0.500000000000000     
  0.500000000000000     
  0.500000000000000     