# vtk DataFile Version 5.1
Data.vtk
ASCII
DATASET UNSTRUCTURED_GRID
 
POINTS 2000 float
    0.09    0.20   -2.42
    0.00    0.45  -10.41
   -5.35  -11.62    2.07
    3.22    6.68    1.50
   -7.94    1.95   10.54
   -2.75   -6.72   12.22
   -0.59    4.06  -10.91
  -10.04   -2.69   -9.44
   -2.16   10.62    0.08
    1.61   -2.93  -11.65
    5.84    5.46    6.31
    1.11   -9.68   -6.54
    2.09    6.07    5.53
    0.34   -0.69  -13.33
    9.49   -7.31   -1.17
    1.18    0.34   -4.44
    3.27    5.07    5.95
    1.42   -5.01    3.02
    9.31    4.02    6.34
    4.16   -7.65   -2.18
   -0.58   -2.05  -10.39
    9.49    3.54   -9.54
   -4.78    5.95   -1.92
    8.32   -6.20    1.81
    8.63    0.86   -0.33
   -9.87   -0.67    9.98
    1.07  -10.12    3.67
   11.01   -6.44    3.94
  -10.20    7.19    6.38
   -5.70   -1.98    7.11
    0.23   -5.00   10.90
    4.50    0.91    0.85
   -1.87    2.32    7.57
    6.08   -2.38   -6.17
   -7.16   -2.00    1.38
    1.38   -3.16    3.89
    0.28   -0.51    1.21
   -1.62   -2.71  -12.35
   -0.10    3.67   -2.30
    0.35  -12.86    1.47
   -2.19    3.43    2.01
   -1.15   -0.89   -6.84
   -3.17    2.80   -2.76
    7.39   -9.15    8.07
  -12.66   -1.33   -6.11
   -2.41    2.80   -9.23
    7.99    6.46   -7.80
    0.08    0.30   -7.42
    5.40    6.31    3.48
    1.88  -11.75   -5.43
    2.61   -3.35   11.97
   -4.64   -6.54    4.54
   -2.13    8.86    4.44
    3.77   -0.80   -2.52
   -2.34    1.22    1.51
   -0.24    0.21  -10.99
   -2.07    4.92   -9.36
    3.64    2.88    9.97
   -1.55    5.65   -5.93
  -13.80    1.93   -1.62
   -2.12    2.03  -10.40
   -0.30    0.09   -6.96
    1.29    1.27    2.13
   10.63   -3.26    1.81
    5.79   -0.59    6.85
    4.54    8.25   -7.71
    2.15    0.20  -11.00
   10.33   -0.39    7.91
    1.88   -2.72    7.40
    3.79   12.45   -0.97
   -2.89   -4.27    1.53
    3.53   -5.32   -9.08
   -6.27   -7.99   -4.80
   -0.46    0.61    3.69
    1.90    1.50    5.43
   -6.57   -6.74   -0.57
    0.60    1.06  -13.45
   -3.35    1.58   11.11
   -0.50    0.34   11.04
    2.87   -1.90   11.06
    0.09    0.30   -4.53
    3.26    0.40    4.40
   13.53   -2.60    1.57
    0.00    0.00    4.94
    2.13   -3.81   -4.14
    9.98    7.28   -5.85
   -6.34   -3.83   10.70
    4.56   -2.71    5.97
    1.41    3.66  -11.08
    3.90    4.06    0.27
   -0.60   -0.22  -13.14
    1.87   -2.97  -10.66
   -4.43   -0.04    2.29
   -0.17   -0.40    1.31
    1.28   -0.63   -3.22
   -0.38   11.31    1.98
   -4.29    4.68   -9.24
   -1.81   -4.22   -9.33
   -0.39    7.94  -10.73
   -4.75    5.54   -3.06
   -2.30   -5.43    3.58
    5.08   -1.76    3.23
   -9.50    0.68    9.41
   -2.79    6.63    3.15
  -10.57   -1.09    8.73
   -0.58    1.03   10.96
   -6.76  -10.66    6.67
    2.75    1.39   11.24
   -4.48   -8.33    5.81
    3.85   -1.33    1.82
   -0.58   -0.13   -3.03
    3.01   -0.89    0.02
    1.05    2.22    6.79
   -1.18    1.88   13.04
    7.99   -0.43    2.99
    4.36   11.32   -7.75
   -2.05    1.21   12.73
   -8.31    5.62   -7.32
    7.28   -3.43   10.70
   -5.25   -8.95    4.96
    1.22    1.36    6.76
   -3.27   -4.28    6.21
   -4.70    5.33   -8.17
   -0.82    2.09  -11.41
   -5.50    2.52    9.81
   -6.77    7.94    0.30
    0.18    1.09  -11.77
    1.69   -2.51   -5.48
   -0.04   -0.04    4.24
   -0.34    1.82    6.66
    2.41   -8.79   -3.50
    5.79    2.24  -12.80
   -3.97   -6.11  -11.99
    3.94    6.60    5.08
   -1.84   -0.96    9.78
   -6.60   -8.18    7.00
   -2.73   -7.49    5.91
    4.63   -2.94  -12.20
   -0.01   -0.03    4.97
    1.70   -2.39   -3.68
    7.77   -4.21   -4.86
   -3.09   -6.16   12.63
   -7.13    2.74   -0.16
   -4.52   -2.47  -10.80
   -3.96   -4.24   -9.12
    0.59   -4.30   -8.38
    1.22   -2.15    8.84
   -7.41    9.39   -7.72
   -0.79   -3.24   -9.45
   -2.92  -10.33   -5.56
   10.52   -0.98    3.39
   -0.65   -0.12    3.43
    9.25    4.41    6.97
    2.97    1.07   -9.10
   -0.76   -1.54   10.49
   -2.50   -1.68   10.54
   -8.91   -5.57    6.48
   -4.62    8.05    3.77
   -1.91   -1.37   10.31
    6.24    5.47    3.64
   -0.36   -2.10    8.88
    0.88    3.19    1.35
    3.04   -1.51   -0.78
    5.51    5.53  -11.33
    0.86    5.23   -7.37
   10.22    7.46    6.25
   -1.14    3.74   11.96
    5.32   -4.69  -10.42
    4.23   -0.45   -9.22
   -3.54    2.20   -4.99
   10.50    0.13    4.15
   -3.58    2.44  -13.25
   -1.95    2.44  -13.86
   -5.76    0.24   -6.35
   -9.22    0.79   -0.76
   10.05    5.16   -3.76
   -7.14   -5.16   -6.07
   -1.66   -0.50    0.05
   -7.16    1.32    2.75
    6.38    2.76    6.94
    0.09   -2.41    7.41
    0.14    0.60  -10.76
    3.46    0.95   -6.47
    2.79  -12.02   -4.35
    5.98   -0.59    7.19
    9.68   -1.58   -8.47
   -7.28    1.88   -9.93
   -0.21   -7.18    3.53
   -1.96   -1.67   -2.30
   -4.64   -8.90   -4.18
  -10.70    7.27   -5.54
   -0.42   -1.62   -5.00
    6.65   -0.01    9.48
   -0.81  -12.57   -1.94
   -0.98    1.59    9.04
    1.21    1.15   -9.28
   -6.22   -1.79   -9.04
   -1.14   -6.84   -1.76
   -2.23    1.37    6.97
    0.27    2.83    2.63
    5.97    8.17    6.21
   -1.98   13.69    4.00
    5.11   -2.08   10.48
   -0.05    0.00   12.23
  -10.49   -9.21    1.57
   -4.64   -1.94    3.30
    6.91   -4.04   -7.80
   -0.32   -5.72   -5.57
   11.20    4.09    0.35
    1.66   10.73   -8.74
   -9.73    2.37    4.05
   -5.14    3.22    9.17
    0.11    0.86    8.31
    5.36    4.96   11.79
   -2.20    6.77    1.34
    2.75    1.99    4.55
    2.64    5.83   -1.26
   -7.49    5.13    7.11
   -3.59    0.27  -13.02
   -2.37   -0.36   12.95
   -3.40    8.74    4.93
    8.83    1.53  -10.34
   -6.05   -3.19   -0.43
   -5.15    4.99   -9.22
    5.42    0.02   10.59
   -4.86    1.51    5.84
   -2.08    0.29   -7.08
    9.21   10.28   -2.44
   -6.83   -5.27    7.90
   -5.14   10.54    1.19
   -4.21   -4.96    0.98
    9.09    0.48    6.75
    4.40   -5.48  -11.66
   -0.04    0.81   10.85
   -0.04   -0.11   -9.67
   -4.95   -1.58    4.03
   -2.04   -0.55   -4.47
   -0.30    0.81    9.49
    4.95    1.63    9.10
   -4.82   -0.91   -7.92
    5.66    1.84  -11.63
   -1.29    0.82   -1.06
   -4.13    6.64   -6.72
    7.22    5.28   -9.67
    4.75    6.65   11.01
   -4.87   -2.96    2.15
   -1.03    5.80   -0.97
    0.62    0.32   -2.16
  -10.87   -6.50    6.93
    8.82    0.41   -5.59
    1.60    4.26   10.48
   -0.18   -1.22   -3.76
  -10.94    4.09   -7.61
    0.21   -0.57   10.42
   -7.52   -1.54   -6.39
    2.99   -2.22   -4.33
   -0.25   -0.93   10.86
    7.89  -10.64    2.65
   -3.77    7.23   -9.35
    0.50    0.20   -1.14
    8.60    8.86   -4.00
   -4.80    4.07   10.35
   -8.35    6.36    3.82
   -1.86   -0.19   -5.90
   -3.72   -3.83    0.28
    2.86   -0.60  -13.95
   10.61   -1.75   -0.10
   -7.17   -1.80  -10.78
    2.19   -3.77    3.60
   -8.20    1.50   -6.47
    0.93    1.62   -5.55
    0.23    0.08   14.05
   10.45    9.05   -1.32
    9.14    5.08   -0.63
   -3.91    6.27    9.87
    1.55   -4.77   -1.40
    1.96   -0.19   -4.80
    3.34    9.42    7.25
    0.99   -0.32   -1.34
  -10.73    0.61   -1.26
   -0.69   -0.40    8.24
    3.13   -0.61    0.41
    2.48    1.74   -3.10
   -0.15   -0.11    0.63
   -3.15   -0.70   -5.15
    0.43    2.29    3.72
    0.58   -1.52   -3.18
    0.94    0.39    6.59
    1.63    1.93    9.15
    2.79    0.84    3.86
   -7.52   -3.51    7.79
   -6.95   -6.68    0.04
   -0.51   -0.17    7.64
   11.93    1.17   -6.65
    6.67    8.33    3.11
   -2.66   -6.01   11.43
    4.43   -9.22   -2.75
    3.12   -0.32   -0.53
    3.01   -7.03   -7.83
    0.23   -9.85  -10.52
    0.20   -0.14    0.61
    1.95   -4.87    1.84
    6.40    3.20    3.93
   10.49    5.67    3.32
    0.40    0.59  -10.21
    1.57    3.22   -7.73
    5.70    0.86  -13.11
    4.00   -5.52   11.93
    2.53   -1.15   -3.26
   -0.58   -0.54   -0.42
   10.46   -2.89   -9.39
   10.20    3.31    5.49
    5.51    8.97    0.61
   -0.28    0.23   11.99
   -5.34   -0.66   -6.30
    2.82    7.20    1.13
    6.50   -0.87   -9.42
    3.11   -2.19   -6.80
  -13.03   -4.67    1.02
   -3.26    3.20    0.32
   -2.79    5.55   -8.64
   -1.19    1.14   -2.04
    0.93    0.52   -0.29
    0.82   -2.20   -0.02
   -2.95    0.44   -7.48
    2.13    7.80    8.96
    3.01    3.41   -6.22
    6.05    4.12  -10.38
   -1.57   -4.17  -10.33
   -3.13   -3.81  -13.20
    1.95    3.44    3.97
    9.64   -0.19   -5.36
   -2.75   -3.49   11.87
    0.00    0.07    8.14
   10.63   -2.30    7.23
  -10.14   -4.41    0.16
  -10.83   -3.43    1.98
   -1.96   -8.31    5.01
  -13.55   -0.03   -0.30
   -1.85   10.58    3.40
    9.90   -3.54   -8.25
   -1.25    3.44   11.48
    2.36    0.36  -10.25
  -11.86    3.35   -1.06
   -0.16    0.85    5.93
   -0.07   -0.13   -3.06
   -5.35    5.13    8.26
    5.38  -10.85   -1.37
    2.12   -2.49    4.39
    0.04   -0.42   -2.02
   -6.02   -7.21   -3.77
    3.37   -6.92    8.05
   -1.77   -1.99    1.62
   -1.07   -0.40   11.32
   -8.00    2.39   10.54
   -0.82    8.11    0.38
    2.38    8.95   -0.10
    4.10   -1.28    8.29
   -0.87    0.59  -14.40
   -2.19    0.45  -10.44
   -2.28    8.24    0.60
    1.54   -6.10    7.08
    5.74   -3.25    1.32
    4.19  -11.29    4.43
    4.19    1.32    1.69
   -3.83    4.80   12.61
   -5.11   -8.27    3.47
   12.61   -3.42   -5.39
   -6.51    9.32   -6.17
  -10.55    1.06    8.04
    7.75  -11.02   -0.06
  -10.09    2.69   -7.40
    4.69    5.81   -8.70
    0.53   -0.29   -1.04
   -1.88   -7.33   -9.10
   -2.59   -3.95   -6.10
    8.95    5.92    4.15
   -3.64    3.94    2.43
    1.11    5.83  -12.11
   -2.46   -3.71   -4.09
    8.85    3.08    0.34
    0.41   -0.22   -3.38
   -1.34    8.68    5.33
    0.97    1.08  -12.47
  -12.18    1.65   -2.57
   -1.97    0.06   -6.46
    3.16   -0.19   -6.09
    8.05    3.28    7.94
   -7.03    4.70    5.60
   -4.79    4.50   -6.16
    0.63   -0.94   12.08
    1.57   -0.82   -6.42
   -0.20    0.05   14.41
    7.99    6.10   10.27
   -4.81    7.36   -3.45
    3.45   -0.17    1.28
[...]
POINT_DATA 2000
SCALARS radius float
LOOKUP_TABLE default
  0.500000000000000     
  0.500000000000000     
  0.500000000000000     
  0.500000000000000     
  0.500000000000000     
  0.500000000000000     
  0.500000000000000     
  0.500000000000000     
  0.500000000000000     
  0.500000000000000     
  0.500000000000000     
  0.500000000000000     
  0.500000000000000     
  0.500000000000000     
  0.500000000000000     
  0.500000000000000     
  0.500000000000000     
  0.500000000000000     
  0.500000000000000     
  0.500000000000000     
  0.500000000000000     
  0.500000000000000     
  0.500000000000000     
  0.500000000000000     
  0.500000000000000     
  0.500000000000000     
  0.500000000000000     
  0.500000000000000     
  0.500000000000000     
  0.500000000000000     
  0.500000000000000     
  0.500000000000000     
  0.500000000000000     
  0.500000000000000     
  0.500000000000000     
  0.500000000000000     
  0.500000000000000     
  0.500000000000000     
  0.500000000000000     
  0.500000000000000     
  0.500000000000000     
  0.500000000000000     
  0.500000000000000     
  0.500000000000000     
  0.500000000000000     
  0.500000000000000     
  0.500000000000000     
  0.500000000000000     
  0.500000000000000     
  0.500000000000000     
  0.500000000000000     
  0.500000000000000     
  0.500000000000000     
  0.500000000000000     
  0.500000000000000     
  0.500000000000000     
  0.500000000000000     
  0.500000000000000     
  0.500000000000000     
  0.500000000000000     
  0.500000000000000     
  0.500000000000000     
  0.500000000000000     
  0.500000000000000     
  0.500000000000000     
  0.500000000000000     
  0.500000000000000     
  0.500000000000000     
  0.500000000000000     
  0.500000000000000     
  0.500000000000000     
  0.500000000000000     
  0.500000000000000     
  0.500000000000000     
  0.500000000000000     
  0.500000000000000     
  0.500000000000000     
  0.500000000000000     
  0.500000000000000     
  0.500000000000000     
  0.500000000000000     
  0.500000000000000     
  0.500000000000000     
  0.500000000000000     
  0.500000000000000     
  0.500000000000000     
  0.500000000000000     
  0.500000000000000     
  0.500000000000000     
  0.500000000000000     
  0.500000000000000     
  0.500000000000000     
  0.500000000000000     
  0.500000000000000     
  0.500000000000000     
  0.500000000000000     
  0.500000000000000     
  0.500000000000000     
  0.500000000000000     
  0.500000000000000     
  0.500000000000000     
  0.500000000000000     
  0.500000000000000     
  0.500000000000000     
  0.500000000000000     
  0.500000000000000     
  0.500000000000000     
  0.500000000000000     
  0.500000000000000     
  0.500000000000000     
  0.500000000000000     
  0.500000000000000     
  0.500000000000000     
  0.500000000000000     
  0.500000000000000     
  0.500000000000000     
  0.500000000000000     
  0.500000000000000     
  0.500000000000000     
  0.500000000000000     
  0.500000000000000     
  0.500000000000000     
  0.500000000000000     
  0.500000000000000     
  0.500000000000000     
  0.500000000000000     
  0.500000000000000     
  0.500000000000000     
  0.500000000000000     
  0.500000000000000     
  0.500000000000000     
  0.500000000000000     
  0.500000000000000     
  0.500000000000000     
  0.500000000000000     
  0.500000000000000     
  0.500000000000000     
  0.500000000000000     
  0.500000000000000     
  0.500000000000000     
  0.500000000000000     
  0.500000000000000     
  0.500000000000000     
  0.500000000000000     
  0.500000000000000     
  0.500000000000000     
  0.500000000000000     
  0.500000000000000     
  0.500000000000000     
  0.500000000000000     
  0.500000000000000     
  0.500000000000000     
  0.500000000000000     
  0.500000000000000     
  0.500000000000000     
  0.500000000000000     
  0.500000000000000     
  0.500000000000000     
  0.500000000000000     
  0.500000000000000     
  0.500000000000000     
  0.500000000000000     
  0.500000000000000     
  0.500000000000000     
  0.500000000000000     
  0.500000000000000     
  0.500000000000000     
  0.500000000000000     
  0.500000000000000     
  0.500000000000000     
  0.500000000000000     
  0.500000000000000     
  0.500000000000000     
  0.500000000000000     
  0.500000000000000     
  0.500000000000000     
  0.500000000000000     
  0.500000000000000     
  0.500000000000000     
  0.500000000000000     
  0.500000000000000     
  0.500000000000000     
  0.500000000000000     
  0.500000000000000     
  0.500000000000000     
  0.500000000000000     
  0.500000000000000     
  0.500000000000000     
  0.500000000000000     
  0.500000000000000     
  0.500000000000000     
  0.500000000000000     
  0.500000000000000     
  0.500000000000000     
  0.500000000000000     
  0.500000000000000     
  0.500000000000000     
  0.500000000000000     
  0.500000000000000     
  0.500000000000000     
  0.500000000000000     
  0.500000000000000     
  0.500000000000000     
  0.500000000000000     
  0.500000000000000     
  0.500000000000000     
  0.500000000000000     
  0.500000000000000     
  0.500000000000000     
  0.500000000000000     
  0.500000000000000     
  0.500000000000000     
  0.500000000000000     
  0.500000000000000     
  0.500000000000000     
  0.500000000000000     
  0.500000000000000     
  0.500000000000000     
  0.500000000000000     
  0.500000000000000     
  0.500000000000000     
  0.500000000000000     
  0.500000000000000     
  0.500000000000000     
  0.500000000000000     
  0.500000000000000     
  0.500000000000000     
  0.500000000000000     
  0.500000000000000     
  0.500000000000000     
  0.500000000000000     
  0.500000000000000     
  0.500000000000000     
  0.500000000000000     
  0.500000000000000     
  0.500000000000000     
  0.500000000000000     
  0.500000000000000     
  0.500000000000000     
  0.500000000000000     
  0.500000000000000     
  0.500000000000000     
  0.500000000000000     
  0.500000000000000     
  0.500000000000000     
  0.500000000000000     
  0.500000000000000     
  0.500000000000000     
  0.500000000000000     
  0.500000000000000     
  0.500000000000000     
  0.500000000000000     
  0.500000000000000     
  0.500000000000000     
  0.500000000000000     
  0.500000000000000     
  0.500000000000000     
  0.500000000000000     
  0.500000000000000     
  0.500000000000000     
  0.500000000000000     
  0.500000000000000     
  0.500000000000000     
  0.500000000000000     
  0.500000000000000     
  0.500000000000000     
  0.500000000000000     
  0.500000000000000     
  0.500000000000000     
  0.500000000000000     
  0.500000000000000     
  0.500000000000000     
  0.500000000000000     
  0.500000000000000     
  0.500000000000000     
  0.500000000000000     
  0.500000000000000     
  0.500000000000000     
  0.500000000000000     
  0.500000000000000     
  0.500000000000000     
  0.500000000000000     
  0.500000000000000     
  0.500000000000000     
  0.500000000000000     
  0.500000000000000     
  0.500000000000000     
  0.500000000000000     
  0.500000000000000     
  0.500000000000000     
  0.500000000000000     
  0.500000000000000     
  0.500000000000000     
  0.500000000000000     
  0.500000000000000     
  0.500000000000000     
  0.500000000000000     
  0.500000000000000     
  0.500000000000000     
  0.500000000000000     
  0.500000000000000     
  0.500000000000000     
  0.500000000000000     
  0.500000000000000     
  0.500000000000000     
  0.500000000000000     
  0.500000000000000     
  0.500000000000000     
  0.500000000000000     
  0.500000000000000     
  0.500000000000000     
  0.500000000000000     
  0.500000000000000     
  0.500000000000000     
  0.500000000000000     
  0.500000000000000     
  0.500000000000000     
  0.500000000000000     
  0.500000000000000     
  0.500000000000000     
  0.500000000000000     
  0.500000000000000     
  0.500000000000000     
  0.500000000000000     
  0.500000000000000     
  0.500000000000000     
  0.500000000000000     
  0.500000000000000     
  0.500000000000000     
  0.500000000000000     
  0.500000000000000     
  0.500000000000000     
  0.500000000000000     
  0.500000000000000     
  0.500000000000000     
  0.500000000000000     
  0.500000000000000     
  0.500000000000000     
  0.500000000000000     
  0.500000000000000     
  0.500000000000000     
  0.500000000000000     
  0.500000000000000     
  0.500000000000000     
  0.500000000000000     
  0.500000000000000     
  0.500000000000000     
  0.500000000000000     
  0.500000000000000     
  0.500000000000000     
  0.500000000000000     
  0.500000000000000     
  0.500000000000000     
  0.500000000000000     
  0.500000000000000     
  0.500000000000000     
  0.500000000000000     
  0.500000000000000     
  0.500000000000000     
  0.500000000000000     
  0.500000000000000     
  0.500000000000000     
  0.500000000000000     
  0.500000000000000     
  0.500000000000000     
  0.500000000000000     
  0.500000000000000     
  0.500000000000000     
  0.500000000000000     
  0.500000000000000     
  0.500000000000000     
  0.500000000000000     
  0.500000000000000     
  0.500000000000000     
  0.500000000000000     
  0.500000000000000     
  0.500000000000000     
  0.500000000000000     
  0.500000000000000     
  0.500000000000000     
  0.500000000000000     
  0.500000000000000     
  0.500000000000000     
  0.500000000000000     
  0.500000000000000     
  0.500000000000000     
  0.500000000000000     
  0.500000000000000     
  0.500000000000000     
  0.500000000000000     
  0.500000000000000     
  0.500000000000000     
  0.500000000000000     
  0.500000000000000     
  0.500000000000000     
  0.500000000000000     
  0.500000000000000     
  0.500000000000000     
  0.500000000000000     
  0.500000000000000     
  0.500000000000000     
  0.500000000000000     
  0.500000000000000     
  0.500000000000000     
  0.500000000000000     
  0.500000000000000     
  0.500000000000000     
  0.500000000000000     
  0.500000000000000     
  0.500000000000000     
  0.500000000000000     
  0.500000000000000     
  0.500000000000000     
  0.500000000000000     
  0.500000000000000     
  0.500000000000000     
  0.500000000000000     
  0.500000000000000     
  0.500000000000000     
  0.500000000000000     
  0.500000000000000     
  0.500000000000000     
  0.500000000000000     
  0.500000000000000     
  0.500000000000000     
  0.500000000000000     
  0.500000000000000     
  0.500000000000000     
  0.500000000000000     
  0.500000000000000     
  0.500000000000000     
  0.500000000000000     
  0.500000000000000     
  0.500000000000000     
  0.500000000000000     
  0.500000000000000     
  0.500000000000000     
  0.500000000000000     
  0.500000000000000     
  0.500000000000000     
  0.500000000000000     
  0.500000000000000     
  0.500000000000000     
  0.500000000000000     
  0.500000000000000     
  0.500000000000000     
  0.500000000000000     
  0.500000000000000     
  0.500000000000000     
  0.500000000000000     
  0.500000000000000     
  0.500000000000000     
  0.500000000000000     
  0.500000000000000     
  0.500000000000000     
  0.500000000000000     
  0.500000000000000     
  0.500000000000000     
  0.500000000000000     
  0.500000000000000     
  0.500000000000000     
  0.500000000000000     
  0.500000000000000     
  0.500000000000000     
  0.500000000000000     
  0.500000000000000     
  0.500000000000000     
  0.500000000000000     
  0.500000000000000     
  0.500000000000000     
  0.500000000000000     
  0.500000000000000     
  0.500000000000000     
  0.500000000000000     
  0.500000000000000     
  0.500000000000000     
  0.500000000000000     
  0.500000000000000     
  0.500000000000000     
  0.500000000000000     
  0.500000000000000     
  0.500000000000000     
  0.500000000000000     
  0.500000000000000     
  0.500000000000000     
  0.500000000000000     
  0.500000000000000     
  0.500000000000000     
  0.500000000000000     
  0.500000000000000     
  0.500000000000000     
  0.500000000000000     
  0.500000000000000     
  0.500000000000000     
  0.500000000000000     
  0.500000000000000     
  0.500000000000000     
  0.500000000000000     
  0.500000000000000     
  0.500000000000000     
  0.500000000000000     
  0.500000000000000     
  0.500000000000000     
  0.500000000000000     
  0.500000000000000     
  0.500000000000000     
  0.500000000000000     
  0.500000000000000     
  0.500000000000000     
  0.500000000000000     
  0.500000000000000     
  0.500000000000000     
  0.500000000000000     
  0.500000000000000     
  0.500000000000000     
  0.500000000000000     
  0.500000000000000     
  0.500000000000000     
  0.500000000000000     
  0.500000000000000     
  0.500000000000000     
  0.500000000000000     
  0.500000000000000     
  0.500000000000000     
  0.500000000000000     
  0.500000000000000     
  0.500000000000000     
  0.500000000000000     
  0.500000000000000     
  0.500000000000000     
  0.500000000000000     
  0.500000000000000     
  0.500000000000000     
  0.500000000000000     
  0.500000000000000     
  0.500000000000000     
  0.500000000000000     
  0.500000000000000     
  0.500000000000000     
  0.500000000000000     
  0.500000000000000     
  0.500000000000000     
  0.500000000000000     
  0.500000000000000     
  0.500000000000000     
  0.500000000000000     
  0.500000000000000     
  0.500000000000000     
  0.500000000000000     
  0.500000000000000     
  0.500000000000000     
  0.500000000000000     
  0.500000000000000     
  0.500000000000000     
  0.500000000000000     
  0.500000000000000     
  0.500000000000000     
  0.500000000000000     
  0.500000000000000     
  0.500000000000000     
  0.500000000000000     
  0.500000000000000     
  0.500000000000000     
  0.500000000000000     
  0.500000000000000     
  0.500000000000000     
  0.500000000000000     
  0.500000000000000     
  0.500000000000000     
  0.500000000000000     
  0.500000000000000     
  0.500000000000000     
  0.500000000000000     
  0.500000000000000     
  0.500000000000000     
  0.500000000000000     
  0.500000000000000     
  0.500000000000000     
  0.500000000000000     
  0.500000000000000     
  0.500000000000000     
  0.500000000000000     
  0.500000000000000     
  0.500000000000000     
  0.500000000000000     
  0.500000000000000     
  0.500000000000000     
  0.500000000000000     
  0.500000000000000     
  0.500000000000000     
  0.500000000000000     
  0.500000000000000     
  0.500000000000000     
  0.500000000000000     
  0.500000000000000     
  0.500000000000000     
  0.500000000000000     
  0.500000000000000     
  0.500000000000000     
  0.500000000000000     
  0.500000000000000     
  0.500000000000000     
  0.500000000000000     
  0.500000000000000     
  0.500000000000000     
  0.500000000000000     
  0.500000000000000     
  0.500000000000000     
  0.500000000000000     
  0.500000000000000     
  0.500000000000000     
  0.500000000000000     
  0.500000000000000     
  0.500000000000000     
  0.500000000000000     
  0.500000000000000     
  0.500000000000000     
  0.500000000000000     
  0.500000000000000     
  0.500000000000000     
  0.500000000000000     
  0.500000000000000     
  0.500000000000000     
  0.500000000000000     
  0.500000000000000     
  0.500000000000000     
  0.500000000000000     
  0.500000000000000     
  0.500000000000000     
  0.500000000000000     
  0.500000000000000     
  0.500000000000000     
  0.500000000000000     
  0.500000000000000     
  0.500000000000000     
  0.500000000000000     
  0.500000000000000     
  0.500000000000000     
  0.500000000000000     
  0.500000000000000     
  0.500000000000000     
  0.500000000000000     
  0.500000000000000     
  0.500000000000000     
  0.500000000000000     
  0.500000000000000     
  0.500000000000000     
  0.500000000000000     
  0.500000000000000     
  0.500000000000000     
  0.500000000000000     
  0.500000000000000     
  0.500000000000000     
  0.500000000000000     
  0.500000000000000     
  0.500000000000000     
  0.500000000000000     
  0.500000000000000     
  0.500000000000000     
  0.500000000000000     
  0.500000000000000     
  0.500000000000000     
  0.500000000000000     
  0.500000000000000     
  0.500000000000000     
  0.500000000000000     
  0.500000000000000     
  0.500000000000000     
  0.500000000000000     
  0.500000000000000     
  0.500000000000000     
  0.500000000000000     
  0.500000000000000     
  0.500000000000000     
  0.500000000000000     
  0.500000000000000     
  0.500000000000000     
  0.500000000000000     
  0.500000000000000     
  0.500000000000000     
  0.500000000000000     
  0.500000000000000     
  0.500000000000000     
  0.500000000000000     
  0.500000000000000     
  0.500000000000000     
  0.500000000000000     
  0.500000000000000     
  0.500000000000000     
  0.500000000000000     
  0.500000000000000     
  0.500000000000000     
  0.500000000000000     
  0.500000000000000     
  0.500000000000000     
  0.500000000000000     
  0.500000000000000     
  0.500000000000000     
  0.500000000000000     
  0.500000000000000     
  0.500000000000000     
  0.500000000000000     
  0.500000000000000     
  0.500000000000000     
  0.500000000000000     
  0.500000000000000     
  0.500000000000000     
  0.500000000000000     
  0.500000000000000     
  0.500000000000000     
  0.500000000000000     
  0.500000000000000     
  0.500000000000000     
  0.500000000000000     
  0.500000000000000     
  0.500000000000000     
  0.500000000000000     
  0.500000000000000     
  0.500000000000000     
  0.500000000000000     
  0.500000000000000     
  0.500000000000000     
  0.500000000000000     
  0.500000000000000     
  0.500000000000000     
  0.500000000000000     
  0.500000000000000     
  0.500000000000000     
  0.500000000000000     
  0.500000000000000     
  0.500000000000000     
  0.500000000000000     
  0.500000000000000     
  0.500000000000000     
  0.500000000000000     
  0.500000000000000     
  0.500000000000000     
  0.500000000000000     
  0.500000000000000     
  0.500000000000000     
  0.500000000000000     
  0.500000000000000     
  0.500000000000000     
  0.500000000000000     
  0.500000000000000     
  0.500000000000000     
  0.500000000000000     
  0.500000000000000     
  0.500000000000000     
  0.500000000000000     
  0.500000000000000     
  0.500000000000000     
  0.500000000000000     
  0.500000000000000     
  0.500000000000000     
  0.500000000000000     
  0.500000000000000     
  0.500000000000000     
  0.500000000000000     
  0.500000000000000     
  0.500000000000000     
  0.500000000000000     
  0.500000000000000     
  0.500000000000000     
  0.500000000000000     
  0.500000000000000     
  0.500000000000000     
  0.500000000000000     
  0.500000000000000     
  0.500000000000000     
  0.500000000000000     
  0.500000000000000     
  0.500000000000000     
  0.500000000000000     
  0.500000000000000     
  0.500000000000000     
  0.500000000000000     
  0.500000000000000     
  0.500000000000000     
  0.500000000000000     
  0.500000000000000     
  0.500000000000000     
  0.500000000000000     
  0.500000000000000     
  0.500000000000000     
  0.500000000000000     
  0.500000000000000     
  0.500000000000000     
  0.500000000000000     
  0.500000000000000     
  0.500000000000000     
  0.500000000000000     
  0.500000000000000     
  0.500000000000000     
  0.500000000000000     
  0.500000000000000     
  0.500000000000000     