# vtk DataFile Version 5.1
Data.vtk
ASCII
DATASET UNSTRUCTURED_GRID
 
POINTS 2000 float
   -8.64  -10.37   -0.21
    1.33  -14.44    1.80
   -6.22  -10.12    2.79
   -4.80  -11.84   -1.32
    2.27  -13.09    7.03
   -3.47  -10.70   -8.65
   -6.01  -13.20   -8.71
   -3.03  -10.71   -6.84
   -1.34  -14.43   -5.59
   -2.60  -13.35   -0.92
    3.70  -11.94   -2.13
   -3.19   -9.87   -7.36
   -5.82  -12.24   -0.64
   -7.90  -10.43    1.26
    2.96  -12.56   -1.89
   -2.56  -14.27    0.95
   -3.06  -13.61    5.74
   -7.44   -9.89    4.87
  -10.18  -10.32    7.79
   -6.18  -10.77   -3.35
   -6.65   -9.01   -0.55
  -11.81   -8.41    6.06
    1.70  -12.11   -8.70
  -10.54   -8.37   -5.72
   -3.63  -12.79    0.60
    4.02  -13.93   -7.96
   -6.36   -9.11    5.03
   -2.10  -11.77    7.68
    3.99  -13.94   -0.65
    4.28  -11.89    3.17
   -5.67   -9.99   -2.08
    2.50  -14.28   -1.72
    1.76  -14.39    7.83
   -7.05  -11.52   -2.94
   -3.94  -10.79   -3.33
   -8.31   -9.87    6.32
    1.45  -11.60    7.55
    0.90  -12.66    5.59
    4.00  -13.06    0.66
   -6.33  -11.32    2.11
   -4.74  -13.70    2.56
   -2.52  -10.17   -0.64
    3.61  -12.27   -5.81
   -6.50  -10.36    1.87
    1.42  -11.88   -6.76
   -5.43  -13.45    9.50
   -5.44  -13.44    4.20
   -3.82  -12.28   -4.19
   -7.27  -12.52    5.79
   -8.58   -9.71   -8.41
   -7.22  -10.19   -6.35
   -1.17  -10.65    9.50
    1.46  -12.57    7.31
   -4.40  -12.94    2.02
    2.04  -13.71    5.14
   -0.55  -14.49    0.43
    1.36  -14.44   -8.14
    6.08  -12.30    0.54
    1.67  -10.96   -0.19
    2.16  -13.39   -9.50
    3.72  -13.18   -2.05
    5.63  -12.48   -5.79
   -1.60  -12.85    6.98
  -11.63   -8.59    2.91
  -12.13   -7.94    2.33
   -1.89  -13.49    0.38
   -0.24  -11.07   -0.97
   -5.23  -12.48    3.98
   -5.26  -10.38   -0.26
   -8.64  -10.65   -4.50
    4.98  -13.11    7.60
  -11.28   -7.70   -5.65
   -7.53  -10.12   -2.53
    4.87  -13.64    5.53
   -3.66  -14.03    5.05
   -0.86  -10.23   -4.81
    0.34  -14.50    7.78
   -8.12  -11.97   -8.52
   -2.38  -13.42    2.13
   -2.11  -14.35   -3.04
   -7.24  -12.56    9.50
   -0.75  -14.48    6.41
   -3.86  -12.12   -1.12
   -4.41  -13.81   -9.50
   -7.49   -8.83   -6.47
   -4.59  -11.94   -6.02
    0.20  -11.41   -0.02
   -1.87  -14.38   -7.20
    5.42  -12.82   -0.15
   -6.09  -12.22    8.06
   -9.34  -10.04    0.44
   -5.80  -11.74   -8.70
    4.97  -12.95   -3.56
    4.78  -12.68    4.73
   -8.46  -10.66    3.48
    3.97  -13.94   -3.66
    1.65  -12.61    1.60
    3.02  -13.54    5.03
  -10.93   -9.53   -0.32
    5.36  -13.47   -2.76
   -5.19  -10.57    2.61
   -0.82  -14.48   -4.74
    4.52  -13.78    1.21
    1.02  -14.46    6.97
    5.07  -12.02    0.36
   -0.44  -14.49   -9.07
   -8.17   -9.47    5.41
    3.16  -12.50   -3.67
   -3.98   -9.83    4.17
   -1.06  -12.56    2.47
    4.70  -11.63    4.99
    0.13  -13.53   -2.07
   -8.18  -11.97   -3.80
   -2.62  -13.28   -7.72
  -10.93   -9.16    3.38
   -8.20  -10.57   -9.50
    2.96  -11.46   -0.34
    4.41  -12.51   -4.27
  -12.45   -7.38    6.01
    0.64  -11.45    6.96
   -6.70  -12.86    8.53
    6.62  -12.57    7.30
   -3.38  -11.90    7.53
    2.57  -14.27    4.49
    4.38  -12.90   -0.25
   -2.90  -14.21   -5.49
   -9.03  -11.33   -6.89
   -2.27  -10.91   -0.02
  -11.55   -8.76   -9.50
   -7.09  -12.65   -9.50
   -5.50  -11.42   -3.68
    1.43  -13.16    2.82
    1.17  -14.45   -0.19
    2.56  -14.27    0.96
    0.14  -11.78   -8.12
   -4.40  -11.30    6.58
   -7.37   -8.39   -2.88
  -12.49   -6.25   -3.71
   -2.65  -13.34    9.50
  -12.50   -7.27    4.04
   -6.23  -12.02   -3.29
   -0.47   -9.89    0.32
    1.49  -13.44   -4.24
    1.45  -11.45    6.28
    5.69  -12.53    5.13
   -8.84   -9.08    6.63
   -0.65  -12.58    5.23
   -0.64  -13.60   -9.47
   -9.30   -9.99   -5.88
   -6.67   -9.99   -7.55
   -6.43  -11.90    5.43
    3.45  -14.08   -1.52
    4.23  -12.61    3.90
    3.61  -13.43   -5.57
   -3.12  -11.62   -3.87
    1.01  -10.97    0.60
   -0.71  -11.29    1.33
   -0.78  -14.48    8.44
    2.56  -12.20    5.59
   -6.51  -12.95    3.42
    2.17  -12.49   -6.09
   -3.72  -14.01    8.53
   -7.53  -11.13   -8.51
   -5.38  -13.46    0.45
   -1.82  -11.28   -8.50
    0.64  -13.82    1.42
   -3.33  -11.23   -0.47
  -12.78   -6.83   -7.42
   -3.82  -13.99   -1.74
   -0.29  -13.01   -7.72
  -11.04   -9.36   -1.30
    2.29  -13.49   -8.05
   -3.49  -12.03    8.52
    4.55  -13.77   -5.63
    3.90  -13.26    4.61
    1.77  -14.39   -1.04
   -1.14  -11.64    8.01
    0.78  -10.93    7.87
    3.50  -14.07   -4.53
   -2.44  -12.56   -0.33
   -6.21   -9.28   -4.68
   -3.58  -14.05    1.13
   -6.50  -12.96   -0.84
   -1.31  -11.06   -9.48
   -6.49   -9.95    8.12
  -10.13  -10.35   -4.83
    5.41  -12.05   -3.66
   -8.37   -8.31   -2.83
   -1.59  -10.31    4.97
   -3.43   -9.82   -0.38
   -0.83  -13.25   -2.08
   -5.71  -10.36    4.95
  -11.73   -8.52    7.96
   -1.35  -10.53   -7.89
   -0.22  -14.50   -5.97
   -8.53  -10.75    7.11
    3.74  -12.28   -9.50
  -10.01   -9.42   -5.47
    0.53  -11.37   -1.54
   -7.70  -12.28   -2.97
   -5.10  -13.11    6.09
   -6.35  -13.03    9.45
   -5.65  -12.33   -4.07
   -0.24  -13.07   -1.24
   -2.76  -10.56    1.79
    0.43  -11.91   -5.33
   -5.10  -13.58   -8.56
   -0.34  -11.35    7.19
   -1.36  -14.44   -9.50
   -5.06  -11.00   -8.62
    0.25  -13.82    7.06
   -4.36  -11.26   -7.90
    0.78  -14.48    3.92
   -3.62  -11.20   -1.43
    5.02  -13.60   -9.50
   -4.71  -13.71   -0.26
   -0.94  -14.47    1.44
   -1.89  -11.22    3.68
    0.69  -12.90   -6.92
    2.28  -11.82   -1.88
    1.84  -14.38    9.50
   -7.20  -11.48    6.92
    0.52  -11.94   -7.20
    0.76  -13.79   -2.81
   -9.33   -9.90    8.65
   -3.36  -12.18    9.50
    2.79  -11.31   -4.62
   -9.74  -10.74   -3.15
    3.19  -12.20    8.09
   -5.42  -10.20   -9.49
   -2.16   -9.75   -3.09
   -4.54  -12.79    4.63
   -5.11  -10.36   -5.28
   -0.41  -13.15    8.05
   -6.26  -10.02   -4.01
    1.34  -10.91   -1.16
    4.54  -13.77    0.21
   -0.06  -14.50    2.03
   -6.39  -11.09    3.19
   -0.73  -12.01   -6.26
    1.79  -12.93    4.57
   -4.48  -13.79    9.49
   -2.24   -9.99   -6.94
   -7.32   -9.22   -9.26
   -1.96  -14.37    3.72
    3.46  -12.32   -0.28
   -7.28  -10.19   -9.50
   -2.92  -14.18   -2.33
    2.74  -13.53    9.50
   -5.49  -10.03    8.01
    1.27  -12.82   -2.40
   -0.55  -11.05   -8.15
   -0.64  -12.41   -8.45
  -11.28   -7.79    5.01
   -6.92  -12.74    6.71
   -3.75  -12.44    3.61
   -1.83  -12.49   -9.50
   -9.07   -8.44    3.62
    0.19  -12.42   -6.21
   -6.96  -11.60   -1.84
   -7.94  -12.13   -9.50
   -2.24  -13.81   -8.65
    4.75  -12.77    3.06
    2.80  -14.23    8.78
    1.24  -11.19   -4.98
  -11.30   -7.38   -3.11
  -12.02   -8.10    4.33
    5.45  -13.44    9.27
   -4.49  -10.28   -7.82
   -1.27  -11.79   -7.82
   -5.11  -12.83   -1.09
    1.59  -13.63    0.35
  -11.82   -6.68   -8.16
  -11.33   -9.04   -8.50
   -4.49  -12.82   -9.38
   -6.13  -10.47    5.87
   -3.83  -13.06    2.83
   -5.45  -12.61    8.72
   -5.11  -12.87   -7.85
    0.92  -11.68   -0.66
    0.73  -11.92    4.28
  -11.37   -7.23    8.34
   -7.37  -11.47   -5.38
    0.85  -12.65    9.50
    5.27  -12.72   -1.77
   -0.11  -14.50    5.39
    0.79  -13.55   -0.41
   -1.44  -12.62    7.94
    2.24  -14.33   -8.61
   -6.08  -13.17    6.38
   -3.50  -11.13    2.45
    4.49  -13.29    9.50
    3.06  -14.10   -2.93
   -0.90  -13.55   -7.15
   -3.54  -13.03    8.48
   -7.77  -11.37   -1.29
   -9.48   -7.77   -5.94
   -2.83  -13.40    7.55
   -4.55  -10.19    5.11
   -6.96   -8.84   -4.16
    0.60  -12.41    0.05
  -12.89   -6.60    5.57
   -0.18  -13.57    2.85
   -0.58  -14.49   -1.79
   -6.82  -12.77    0.08
   -6.93   -9.85    7.13
   -2.79  -14.23    6.56
  -12.95   -6.14   -4.81
    2.77  -13.14   -2.98
    2.99  -12.45    9.08
   -4.69  -11.60   -6.96
   -2.66  -13.24    6.58
    2.74  -14.24   -0.76
    7.02  -12.69   -0.82
   -5.86  -12.21   -7.82
   -5.51  -13.41   -4.28
   -4.57  -10.75   -9.46
   -3.05  -14.18   -3.33
    2.96  -12.21    1.48
    2.71  -12.72   -7.48
   -2.32  -11.52   -6.92
    2.11  -14.34   -6.48
   -2.65  -12.54   -1.50
   -4.69  -11.45   -3.06
    2.93  -14.20   -5.93
   -4.68  -13.72   -1.26
    3.46  -12.62    3.22
   -3.75  -14.01    6.41
   -2.71  -11.13   -5.32
   -2.27  -11.97    1.18
    0.20  -14.50   -3.28
   -2.39  -11.08   -1.06
   -4.04   -9.22    1.06
    0.87  -12.94   -3.32
   -4.83  -10.76    8.18
    3.28  -11.21   -2.66
    3.18  -13.29    8.56
   -0.25  -10.41    1.57
    3.98  -12.09   -1.11
   -7.73  -12.26   -1.75
    1.17  -14.45   -6.06
   -9.18  -11.22   -9.50
   -9.21  -11.20    5.43
    2.53  -13.32    6.10
   -6.40  -10.66   -9.47
   -0.55  -12.18   -7.24
   -2.41  -14.30    7.48
    4.00  -13.94   -2.64
   -2.44  -12.40   -3.58
   -3.28   -9.77    5.06
    0.23  -11.28   -3.98
   -4.79   -9.61   -8.50
    2.29  -11.05   -2.69
    2.76  -11.79    3.24
   -2.35  -13.34   -6.08
    2.34  -14.31    6.89
   -7.32  -12.52   -3.86
  -10.12   -8.33    7.96
    1.66  -14.40    6.17
    2.24  -11.02   -5.41
   -8.00   -9.95    8.65
   -5.57   -8.92    9.50
   -0.99  -14.47   -6.69
   -3.29   -9.65    9.28
  -12.67   -6.84    9.48
    6.10  -13.15    1.05
    1.60  -11.97    5.39
   -8.23  -10.61   -6.93
    0.44  -14.47   -6.74
   -1.34  -14.44    9.50
   -8.32  -10.33   -5.97
    0.72  -12.27   -9.50
   -9.00  -11.36   -3.88
   -4.45   -9.60    8.68
    1.56  -13.96   -3.38
    2.65  -11.26    1.62
   -6.22  -13.10    5.39
   -1.49  -14.42   -3.98
   -1.77  -13.52   -5.29
    0.09  -10.48   -7.62
   -5.34  -11.36   -7.73
    0.18  -14.50   -4.28
    0.66  -13.73   -4.74
   -6.11  -12.20    6.95
    4.69  -12.79   -5.48
   -2.17  -11.56   -9.40
   -0.71  -14.22   -2.98
  -11.79   -8.10   -0.03
    1.13  -12.57   -5.03
   -1.63  -13.47   -9.48
  -10.43   -7.62    8.59
  -11.55   -8.75    4.93
    3.22  -14.14   -8.61
   -5.32  -13.49    5.19
    4.57  -12.24    7.34
   -9.52  -10.94    3.47
[...]
POINT_DATA 2000
SCALARS radius float
LOOKUP_TABLE default
  0.500000000000000     
  0.500000000000000     
  0.500000000000000     
  0.500000000000000     
  0.500000000000000     
  0.500000000000000     
  0.500000000000000     
  0.500000000000000     
  0.500000000000000     
  0.500000000000000     
  0.500000000000000     
  0.500000000000000     
  0.500000000000000     
  0.500000000000000     
  0.500000000000000     
  0.500000000000000     
  0.500000000000000     
  0.500000000000000     
  0.500000000000000     
  0.500000000000000     
  0.500000000000000     
  0.500000000000000     
  0.500000000000000     
  0.500000000000000     
  0.500000000000000     
  0.500000000000000     
  0.500000000000000     
  0.500000000000000     
  0.500000000000000     
  0.500000000000000     
  0.500000000000000     
  0.500000000000000     
  0.500000000000000     
  0.500000000000000     
  0.500000000000000     
  0.500000000000000     
  0.500000000000000     
  0.500000000000000     
  0.500000000000000     
  0.500000000000000     
  0.500000000000000     
  0.500000000000000     
  0.500000000000000     
  0.500000000000000     
  0.500000000000000     
  0.500000000000000     
  0.500000000000000     
  0.500000000000000     
  0.500000000000000     
  0.500000000000000     
  0.500000000000000     
  0.500000000000000     
  0.500000000000000     
  0.500000000000000     
  0.500000000000000     
  0.500000000000000     
  0.500000000000000     
  0.500000000000000     
  0.500000000000000     
  0.500000000000000     
  0.500000000000000     
  0.500000000000000     
  0.500000000000000     
  0.500000000000000     
  0.500000000000000     
  0.500000000000000     
  0.500000000000000     
  0.500000000000000     
  0.500000000000000     
  0.500000000000000     
  0.500000000000000     
  0.500000000000000     
  0.500000000000000     
  0.500000000000000     
  0.500000000000000     
  0.500000000000000     
  0.500000000000000     
  0.500000000000000     
  0.500000000000000     
  0.500000000000000     
  0.500000000000000     
  0.500000000000000     
  0.500000000000000     
  0.500000000000000     
  0.500000000000000     
  0.500000000000000     
  0.500000000000000     
  0.500000000000000     
  0.500000000000000     
  0.500000000000000     
  0.500000000000000     
  0.500000000000000     
  0.500000000000000     
  0.500000000000000     
  0.500000000000000     
  0.500000000000000     
  0.500000000000000     
  0.500000000000000     
  0.500000000000000     
  0.500000000000000     
  0.500000000000000     
  0.500000000000000     
  0.500000000000000     
  0.500000000000000     
  0.500000000000000     
  0.500000000000000     
  0.500000000000000     
  0.500000000000000     
  0.500000000000000     
  0.500000000000000     
  0.500000000000000     
  0.500000000000000     
  0.500000000000000     
  0.500000000000000     
  0.500000000000000     
  0.500000000000000     
  0.500000000000000     
  0.500000000000000     
  0.500000000000000     
  0.500000000000000     
  0.500000000000000     
  0.500000000000000     
  0.500000000000000     
  0.500000000000000     
  0.500000000000000     
  0.500000000000000     
  0.500000000000000     
  0.500000000000000     
  0.500000000000000     
  0.500000000000000     
  0.500000000000000     
  0.500000000000000     
  0.500000000000000     
  0.500000000000000     
  0.500000000000000     
  0.500000000000000     
  0.500000000000000     
  0.500000000000000     
  0.500000000000000     
  0.500000000000000     
  0.500000000000000     
  0.500000000000000     
  0.500000000000000     
  0.500000000000000     
  0.500000000000000     
  0.500000000000000     
  0.500000000000000     
  0.500000000000000     
  0.500000000000000     
  0.500000000000000     
  0.500000000000000     
  0.500000000000000     
  0.500000000000000     
  0.500000000000000     
  0.500000000000000     
  0.500000000000000     
  0.500000000000000     
  0.500000000000000     
  0.500000000000000     
  0.500000000000000     
  0.500000000000000     
  0.500000000000000     
  0.500000000000000     
  0.500000000000000     
  0.500000000000000     
  0.500000000000000     
  0.500000000000000     
  0.500000000000000     
  0.500000000000000     
  0.500000000000000     
  0.500000000000000     
  0.500000000000000     
  0.500000000000000     
  0.500000000000000     
  0.500000000000000     
  0.500000000000000     
  0.500000000000000     
  0.500000000000000     
  0.500000000000000     
  0.500000000000000     
  0.500000000000000     
  0.500000000000000     
  0.500000000000000     
  0.500000000000000     
  0.500000000000000     
  0.500000000000000     
  0.500000000000000     
  0.500000000000000     
  0.500000000000000     
  0.500000000000000     
  0.500000000000000     
  0.500000000000000     
  0.500000000000000     
  0.500000000000000     
  0.500000000000000     
  0.500000000000000     
  0.500000000000000     
  0.500000000000000     
  0.500000000000000     
  0.500000000000000     
  0.500000000000000     
  0.500000000000000     
  0.500000000000000     
  0.500000000000000     
  0.500000000000000     
  0.500000000000000     
  0.500000000000000     
  0.500000000000000     
  0.500000000000000     
  0.500000000000000     
  0.500000000000000     
  0.500000000000000     
  0.500000000000000     
  0.500000000000000     
  0.500000000000000     
  0.500000000000000     
  0.500000000000000     
  0.500000000000000     
  0.500000000000000     
  0.500000000000000     
  0.500000000000000     
  0.500000000000000     
  0.500000000000000     
  0.500000000000000     
  0.500000000000000     
  0.500000000000000     
  0.500000000000000     
  0.500000000000000     
  0.500000000000000     
  0.500000000000000     
  0.500000000000000     
  0.500000000000000     
  0.500000000000000     
  0.500000000000000     
  0.500000000000000     
  0.500000000000000     
  0.500000000000000     
  0.500000000000000     
  0.500000000000000     
  0.500000000000000     
  0.500000000000000     
  0.500000000000000     
  0.500000000000000     
  0.500000000000000     
  0.500000000000000     
  0.500000000000000     
  0.500000000000000     
  0.500000000000000     
  0.500000000000000     
  0.500000000000000     
  0.500000000000000     
  0.500000000000000     
  0.500000000000000     
  0.500000000000000     
  0.500000000000000     
  0.500000000000000     
  0.500000000000000     
  0.500000000000000     
  0.500000000000000     
  0.500000000000000     
  0.500000000000000     
  0.500000000000000     
  0.500000000000000     
  0.500000000000000     
  0.500000000000000     
  0.500000000000000     
  0.500000000000000     
  0.500000000000000     
  0.500000000000000     
  0.500000000000000     
  0.500000000000000     
  0.500000000000000     
  0.500000000000000     
  0.500000000000000     
  0.500000000000000     
  0.500000000000000     
  0.500000000000000     
  0.500000000000000     
  0.500000000000000     
  0.500000000000000     
  0.500000000000000     
  0.500000000000000     
  0.500000000000000     
  0.500000000000000     
  0.500000000000000     
  0.500000000000000     
  0.500000000000000     
  0.500000000000000     
  0.500000000000000     
  0.500000000000000     
  0.500000000000000     
  0.500000000000000     
  0.500000000000000     
  0.500000000000000     
  0.500000000000000     
  0.500000000000000     
  0.500000000000000     
  0.500000000000000     
  0.500000000000000     
  0.500000000000000     
  0.500000000000000     
  0.500000000000000     
  0.500000000000000     
  0.500000000000000     
  0.500000000000000     
  0.500000000000000     
  0.500000000000000     
  0.500000000000000     
  0.500000000000000     
  0.500000000000000     
  0.500000000000000     
  0.500000000000000     
  0.500000000000000     
  0.500000000000000     
  0.500000000000000     
  0.500000000000000     
  0.500000000000000     
  0.500000000000000     
  0.500000000000000     
  0.500000000000000     
  0.500000000000000     
  0.500000000000000     
  0.500000000000000     
  0.500000000000000     
  0.500000000000000     
  0.500000000000000     
  0.500000000000000     
  0.500000000000000     
  0.500000000000000     
  0.500000000000000     
  0.500000000000000     
  0.500000000000000     
  0.500000000000000     
  0.500000000000000     
  0.500000000000000     
  0.500000000000000     
  0.500000000000000     
  0.500000000000000     
  0.500000000000000     
  0.500000000000000     
  0.500000000000000     
  0.500000000000000     
  0.500000000000000     
  0.500000000000000     
  0.500000000000000     
  0.500000000000000     
  0.500000000000000     
  0.500000000000000     
  0.500000000000000     
  0.500000000000000     
  0.500000000000000     
  0.500000000000000     
  0.500000000000000     
  0.500000000000000     
  0.500000000000000     
  0.500000000000000     
  0.500000000000000     
  0.500000000000000     
  0.500000000000000     
  0.500000000000000     
  0.500000000000000     
  0.500000000000000     
  0.500000000000000     
  0.500000000000000     
  0.500000000000000     
  0.500000000000000     
  0.500000000000000     
  0.500000000000000     
  0.500000000000000     
  0.500000000000000     
  0.500000000000000     
  0.500000000000000     
  0.500000000000000     
  0.500000000000000     
  0.500000000000000     
  0.500000000000000     
  0.500000000000000     
  0.500000000000000     
  0.500000000000000     
  0.500000000000000     
  0.500000000000000     
  0.500000000000000     
  0.500000000000000     
  0.500000000000000     
  0.500000000000000     
  0.500000000000000     
  0.500000000000000     
  0.500000000000000     
  0.500000000000000     
  0.500000000000000     
  0.500000000000000     
  0.500000000000000     
  0.500000000000000     
  0.500000000000000     
  0.500000000000000     
  0.500000000000000     
  0.500000000000000     
  0.500000000000000     
  0.500000000000000     
  0.500000000000000     
  0.500000000000000     
  0.500000000000000     
  0.500000000000000     
  0.500000000000000     
  0.500000000000000     
  0.500000000000000     
  0.500000000000000     
  0.500000000000000     
  0.500000000000000     
  0.500000000000000     
  0.500000000000000     
  0.500000000000000     
  0.500000000000000     
  0.500000000000000     
  0.500000000000000     
  0.500000000000000     
  0.500000000000000     
  0.500000000000000     
  0.500000000000000     
  0.500000000000000     
  0.500000000000000     
  0.500000000000000     
  0.500000000000000     
  0.500000000000000     
  0.500000000000000     
  0.500000000000000     
  0.500000000000000     
  0.500000000000000     
  0.500000000000000     
  0.500000000000000     
  0.500000000000000     
  0.500000000000000     
  0.500000000000000     
  0.500000000000000     
  0.500000000000000     
  0.500000000000000     
  0.500000000000000     
  0.500000000000000     
  0.500000000000000     
  0.500000000000000     
  0.500000000000000     
  0.500000000000000     
  0.500000000000000     
  0.500000000000000     
  0.500000000000000     
  0.500000000000000     
  0.500000000000000     
  0.500000000000000     
  0.500000000000000     
  0.500000000000000     
  0.500000000000000     
  0.500000000000000     
  0.500000000000000     
  0.500000000000000     
  0.500000000000000     
  0.500000000000000     
  0.500000000000000     
  0.500000000000000     
  0.500000000000000     
  0.500000000000000     
  0.500000000000000     
  0.500000000000000     
  0.500000000000000     
  0.500000000000000     
  0.500000000000000     
  0.500000000000000     
  0.500000000000000     
  0.500000000000000     
  0.500000000000000     
  0.500000000000000     
  0.500000000000000     
  0.500000000000000     
  0.500000000000000     
  0.500000000000000     
  0.500000000000000     
  0.500000000000000     
  0.500000000000000     
  0.500000000000000     
  0.500000000000000     
  0.500000000000000     
  0.500000000000000     
  0.500000000000000     
  0.500000000000000     
  0.500000000000000     
  0.500000000000000     
  0.500000000000000     
  0.500000000000000     
  0.500000000000000     
  0.500000000000000     
  0.500000000000000     
  0.500000000000000     
  0.500000000000000     
  0.500000000000000     
  0.500000000000000     
  0.500000000000000     
  0.500000000000000     
  0.500000000000000     
  0.500000000000000     
  0.500000000000000     
  0.500000000000000     
  0.500000000000000     
  0.500000000000000     
  0.500000000000000     
  0.500000000000000     
  0.500000000000000     
  0.500000000000000     
  0.500000000000000     
  0.500000000000000     
  0.500000000000000     
  0.500000000000000     
  0.500000000000000     
  0.500000000000000     
  0.500000000000000     
  0.500000000000000     
  0.500000000000000     
  0.500000000000000     
  0.500000000000000     
  0.500000000000000     
  0.500000000000000     
  0.500000000000000     
  0.500000000000000     
  0.500000000000000     
  0.500000000000000     
  0.500000000000000     
  0.500000000000000     
  0.500000000000000     
  0.500000000000000     
  0.500000000000000     
  0.500000000000000     
  0.500000000000000     
  0.500000000000000     
  0.500000000000000     
  0.500000000000000     
  0.500000000000000     
  0.500000000000000     
  0.500000000000000     
  0.500000000000000     
  0.500000000000000     
  0.500000000000000     
  0.500000000000000     
  0.500000000000000     
  0.500000000000000     
  0.500000000000000     
  0.500000000000000     
  0.500000000000000     
  0.500000000000000     
  0.500000000000000     
  0.500000000000000     
  0.500000000000000     
  0.500000000000000     
  0.500000000000000     
  0.500000000000000     
  0.500000000000000     
  0.500000000000000     
  0.500000000000000     
  0.500000000000000     
  0.500000000000000     
  0.500000000000000     
  0.500000000000000     
  0.500000000000000     
  0.500000000000000     
  0.500000000000000     
  0.500000000000000     
  0.500000000000000     
  0.500000000000000     
  0.500000000000000     
  0.500000000000000     
  0.500000000000000     
  0.500000000000000     
  0.500000000000000     
  0.500000000000000     
  0.500000000000000     
  0.500000000000000     
  0.500000000000000     
  0.500000000000000     
  0.500000000000000     
  0.500000000000000     
  0.500000000000000     
  0.500000000000000     
  0.500000000000000     
  0.500000000000000     
  0.500000000000000     
  0.500000000000000     
  0.500000000000000     
  0.500000000000000     
  0.500000000000000     
  0.500000000000000     
  0.500000000000000     
  0.500000000000000     
  0.500000000000000     
  0.500000000000000     
  0.500000000000000     
  0.500000000000000     
  0.500000000000000     
  0.500000000000000     
  0.500000000000000     
  0.500000000000000     
  0.500000000000000     
  0.500000000000000     
  0.500000000000000     
  0.500000000000000     
  0.500000000000000     
  0.500000000000000     
  0.500000000000000     
  0.500000000000000     
  0.500000000000000     
  0.500000000000000     
  0.500000000000000     
  0.500000000000000     
  0.500000000000000     
  0.500000000000000     
  0.500000000000000     
  0.500000000000000     
  0.500000000000000     
  0.500000000000000     
  0.500000000000000     
  0.500000000000000     
  0.500000000000000     
  0.500000000000000     
  0.500000000000000     
  0.500000000000000     
  0.500000000000000     
  0.500000000000000     
  0.500000000000000     
  0.500000000000000     
  0.500000000000000     
  0.500000000000000     
  0.500000000000000     
  0.500000000000000     
  0.500000000000000     
  0.500000000000000     
  0.500000000000000     
  0.500000000000000     
  0.500000000000000     
  0.500000000000000     
  0.500000000000000     
  0.500000000000000     
  0.500000000000000     
  0.500000000000000     
  0.500000000000000     
  0.500000000000000     
  0.500000000000000     
  0.500000000000000     
  0.500000000000000     
  0.500000000000000     
  0.500000000000000     
  0.500000000000000     
  0.500000000000000     
  0.500000000000000     
  0.500000000000000     
  0.500000000000000     
  0.500000000000000     
  0.500000000000000     
  0.500000000000000     
  0.500000000000000     
  0.500000000000000     
  0.500000000000000     
  0.500000000000000     
  0.500000000000000     
  0.500000000000000     
  0.500000000000000     
  0.500000000000000     
  0.500000000000000     
  0.500000000000000     
  0.500000000000000     
  0.500000000000000     
  0.500000000000000     
  0.500000000000000     
  0.500000000000000     
  0.500000000000000     
  0.500000000000000     
  0.500000000000000     
  0.500000000000000     
  0.500000000000000     
  0.500000000000000     
  0.500000000000000     
  0.500000000000000     
  0.500000000000000     
  0.500000000000000     
  0.500000000000000     
  0.500000000000000     
  0.500000000000000     
  0.500000000000000     
  0.500000000000000     
  0.500000000000000     
  0.500000000000000     
  0.500000000000000     
  0.500000000000000     
  0.500000000000000     
  0.500000000000000     
  0.500000000000000     
  0.500000000000000     
  0.500000000000000     
  0.500000000000000     
  0.500000000000000     
  0.500000000000000     
  0.500000000000000     
  0.500000000000000     
  0.500000000000000     
  0.500000000000000     
  0.500000000000000     
  0.500000000000000     
  0.500000000000000     
  0.500000000000000     
  0.500000000000000     
  0.500000000000000     
  0.500000000000000     
  0.500000000000000     
  0.500000000000000     
  0.500000000000000     
  0.500000000000000     
  0.500000000000000     
  0.500000000000000     
  0.500000000000000     
  0.500000000000000     
  0.500000000000000     
  0.500000000000000     
  0.500000000000000     
  0.500000000000000     
  0.500000000000000     
  0.500000000000000     
  0.500000000000000     
  0.500000000000000     
  0.500000000000000     
  0.500000000000000     
  0.500000000000000     
  0.500000000000000     
  0.500000000000000     
  0.500000000000000     
  0.500000000000000     
  0.500000000000000     
  0.500000000000000     
  0.500000000000000     
  0.500000000000000     
  0.500000000000000     
  0.500000000000000     
  0.500000000000000     
  0.500000000000000     
  0.500000000000000     
  0.500000000000000     
  0.500000000000000     
  0.500000000000000     
  0.500000000000000     
  0.500000000000000     
  0.500000000000000     
  0.500000000000000     
  0.500000000000000     
  0.500000000000000     
  0.500000000000000     
  0.500000000000000     
  0.500000000000000     
  0.500000000000000     
  0.500000000000000     
  0.500000000000000     
  0.500000000000000     
  0.500000000000000     
  0.500000000000000     
  0.500000000000000     
  0.500000000000000     
  0.500000000000000     
  0.500000000000000     
  0.500000000000000     
  0.500000000000000     
  0.500000000000000     
  0.500000000000000     
  0.500000000000000     
  0.500000000000000     
  0.500000000000000     
  0.500000000000000     
  0.500000000000000     
  0.500000000000000     
  0.500000000000000     
  0.500000000000000     
  0.500000000000000     
  0.500000000000000     
  0.500000000000000     
  0.500000000000000     
  0.500000000000000     
  0.500000000000000     
  0.500000000000000     
  0.500000000000000     
  0.500000000000000     
  0.500000000000000     
  0.500000000000000     
  0.500000000000000     
  0.500000000000000     
  0.500000000000000     
  0.500000000000000     
  0.500000000000000     
  0.500000000000000     
  0.500000000000000     
  0.500000000000000     
  0.500000000000000     
  0.500000000000000     
  0.500000000000000     
  0.500000000000000     
  0.500000000000000     