# vtk DataFile Version 5.1
Data.vtk
ASCII
DATASET UNSTRUCTURED_GRID
 
POINTS 2000 float
   -3.64  -10.81   -0.54
   -9.23  -11.19    2.07
    2.97  -12.12    2.73
   -3.73  -11.56   -1.20
   -3.89  -13.12    7.39
   -0.79  -11.58   -9.50
  -13.43   -5.45   -7.71
    3.00  -13.29   -8.16
  -11.11   -9.28   -4.95
   -4.93  -12.76   -0.75
    0.86  -14.47   -4.07
   -1.48  -12.59   -9.50
   -3.29  -10.78   -1.65
   -5.39  -11.63    0.32
    4.26  -13.86   -1.39
  -11.09   -9.28    1.18
   -7.55  -11.25    5.77
    0.71  -11.58    3.87
   -6.08   -9.12    6.08
    3.12  -11.80   -3.75
    4.68  -13.04   -1.01
   -3.30  -10.16    4.66
   -6.25  -10.94   -9.50
   -2.02  -11.01   -3.69
   -3.26  -11.71   -0.33
   -9.16  -11.22   -8.53
    3.09  -13.15    5.61
   -1.21  -12.01    7.24
   -5.02  -13.60   -1.29
    1.88  -14.38    9.50
    2.23  -12.24   -3.26
   -7.45  -12.25   -2.02
  -10.85   -9.54    8.51
   -8.00  -10.94   -2.55
    2.54  -13.49   -4.42
   -3.77  -10.62    5.98
   -4.83  -13.67    9.50
   -0.69  -13.64    6.04
   -1.05  -14.46    1.35
   -5.11  -11.80    1.28
  -12.12   -7.54    2.70
    6.11  -13.15   -1.04
   -2.02  -14.36   -8.67
   -1.65  -11.83    1.09
   -2.81  -13.53   -8.63
  -13.95   -3.94    7.53
  -10.39   -7.56    4.08
   -1.75  -11.95   -4.41
  -13.35   -5.67    3.91
   -1.07  -10.42   -6.24
   -6.99   -9.37   -5.29
   -1.47  -11.28    9.49
   -2.05  -13.53    7.91
   -6.50  -11.92    2.28
   -6.23  -13.09    5.41
   -9.51  -10.55    0.56
  -10.60   -9.86   -7.55
    0.87  -14.46    3.00
    3.49  -14.07    0.94
   -8.22  -10.60   -9.50
    2.05  -14.35   -2.54
   -0.37  -14.50   -9.35
   -3.08  -12.49    6.84
   -3.15  -10.10    2.28
   -6.93   -9.12    0.52
   -4.70  -12.77    0.25
    3.49  -13.61   -2.81
   -7.68  -11.15    3.94
    0.98  -11.54   -1.48
   -8.91   -9.60   -3.15
   -7.11  -12.64    8.48
   -1.68  -10.30   -4.32
   -4.88  -11.04   -3.02
   -7.39  -12.48    6.79
  -12.12   -7.86    5.17
    6.33  -13.04   -6.24
  -11.51   -8.81    8.35
   -9.38   -7.48   -5.30
   -4.97  -12.39    2.07
  -11.23   -9.17   -3.07
   -8.27   -7.99    7.26
  -10.88   -9.55    6.61
   -0.45  -12.25   -1.62
  -13.96   -3.90   -8.03
    1.05  -12.46   -6.45
   -6.98  -11.11   -5.38
    5.63  -12.25    0.65
   -9.69   -9.71   -6.75
   -2.89  -14.21   -0.26
   -8.73   -9.33    6.62
   -7.09  -10.73    0.30
   -4.18   -8.97   -7.75
   -2.60  -14.26   -3.86
   -1.16  -14.45    9.50
   -6.99  -10.07    2.50
   -6.47  -12.94   -3.93
    1.55  -13.88    2.55
   -2.55  -13.40    5.45
   -8.28   -8.27   -1.37
   -3.18  -14.15   -1.96
    0.63  -11.54    1.63
  -10.58   -9.58   -4.15
   -6.32  -13.05    1.13
  -10.68   -9.80    7.56
    0.72  -14.48    2.01
  -11.74   -8.50   -8.61
   -5.76  -10.58    4.13
   -3.57  -14.05   -3.88
    4.38  -12.79    5.32
   -0.28  -12.83    3.57
   -1.76  -14.39    7.51
   -2.36  -13.44   -2.45
  -10.42   -8.22   -3.15
   -7.13   -9.43   -7.04
   -4.52   -9.77    1.99
   -8.33   -8.80   -8.12
    2.44  -14.29    0.90
   -2.69  -14.25   -7.94
   -0.44  -10.82    2.30
   -3.12  -12.68    9.47
   -8.40   -7.80    6.28
   -7.97  -12.11    9.50
   -1.03  -11.64    8.28
   -7.48  -12.42    4.37
   -4.10  -13.91    0.10
  -11.66   -8.45   -4.85
   -8.69   -7.78   -4.64
    5.76  -13.30    2.55
   -5.94   -8.48   -5.70
   -9.02   -7.58   -7.22
   -4.04  -12.23   -3.97
   -5.85  -13.27    3.46
   -8.69  -11.61   -0.58
   -8.01  -12.07    0.69
   -2.87  -12.53   -8.32
    0.03  -12.02    6.11
    2.89  -12.78   -3.81
    1.04  -10.85   -2.88
  -11.05   -7.56    9.20
   -1.91  -10.14    2.27
   -8.49  -10.42   -3.54
    5.84  -13.27    3.55
   -2.18  -13.52   -6.41
   -0.24  -14.02    9.50
   -5.05  -13.56    6.72
    0.28  -11.15    6.56
   -2.21  -12.41    5.48
  -12.94   -6.31   -9.35
   -4.86  -10.02   -4.41
    0.16  -11.46   -8.46
   -6.51  -11.17    4.45
   -5.30  -13.50   -2.24
   -4.44  -13.80    5.82
   -5.91  -13.23   -6.40
    2.74  -12.38   -4.76
    4.72  -13.70    1.78
    3.94  -13.84    2.39
  -11.94   -8.15    7.73
   -1.10  -13.62    6.97
  -11.46   -7.28    4.26
   -1.59  -14.41   -7.75
  -13.41   -5.45    8.41
   -4.97   -8.82   -7.16
  -11.37   -7.20    0.34
   -5.76  -11.40   -8.76
   -6.89  -12.76    1.90
    1.05  -13.41   -1.95
    0.65  -11.45   -5.40
  -11.82   -8.34   -1.35
   -5.37  -12.59   -7.71
   -5.73   -9.34    0.40
   -6.15  -12.28   -8.42
   -5.22  -11.14    8.06
   -5.06  -13.59   -6.79
   -0.72  -13.57    5.04
   -8.16  -11.99   -1.36
   -2.81  -12.22    8.50
   -4.11  -12.93    9.50
   -5.76  -13.31   -5.41
   -2.17  -12.75   -0.37
    5.53  -13.40   -9.50
  -11.73   -8.51    1.21
  -10.25   -7.43   -0.89
   -5.18  -11.75   -9.50
   -4.41  -10.37    7.80
   -6.83   -9.56   -3.23
    1.11  -14.46   -5.98
    2.07  -11.90   -4.19
    1.19  -14.45    7.27
    3.46  -13.26   -1.55
   -3.49  -13.36   -2.48
   -0.71  -11.73    4.09
   -5.73   -9.21    7.79
   -0.48  -12.53   -9.50
  -10.61   -9.88   -5.58
   -9.21   -8.67    5.94
   -8.59  -11.67   -9.50
   -4.78   -9.49   -3.31
    5.37  -13.47   -0.34
  -10.83   -8.07   -2.08
   -8.78  -10.32    5.26
  -10.68   -6.16    9.30
   -5.29  -10.31   -3.55
   -1.60  -12.95   -1.17
    2.47  -13.44    2.24
    3.74  -13.22   -8.83
  -11.74   -6.79   -7.70
   -2.92  -13.66    9.50
  -13.43   -5.47   -9.10
   -2.27  -11.78   -8.73
   -6.30  -11.77    6.67
   -4.86  -10.76   -7.07
   -9.46  -10.97    3.13
    1.05  -12.56   -2.52
   -9.39  -11.05   -9.50
  -12.40   -7.46   -0.32
   -9.84  -10.65    1.50
    3.36  -12.96    4.02
   -2.43  -12.65   -6.82
    4.24  -13.32   -4.36
  -12.58   -7.21    9.50
   -8.28   -8.97    5.73
   -0.99  -13.47   -8.50
   -1.87  -13.59   -3.44
   -6.28   -8.44    8.13
   -7.66   -8.30    8.89
    3.83  -13.99   -9.50
   -8.83   -7.45   -1.53
   -2.49  -11.91    9.45
   -0.67  -12.01   -8.59
    5.87  -13.26   -2.40
   -4.98  -11.21    4.15
    0.18  -12.35   -5.97
   -3.70  -12.19    7.85
    4.30  -13.41   -8.02
    2.99  -14.19   -2.01
   -6.68  -12.86    0.13
  -10.02  -10.48    2.47
   -4.15  -11.23    2.87
   -0.92  -12.86   -6.88
   -1.69  -13.36    4.94
  -13.85   -3.88    8.62
    1.02  -13.48   -9.50
   -1.69  -11.46   -7.98
  -11.38   -8.89    4.03
   -2.22  -14.33    1.38
   -1.90  -11.26   -9.50
  -11.56   -8.75   -2.23
  -12.00   -8.03    9.50
   -2.86  -11.61    7.70
   -0.30  -13.68   -2.81
   -3.21  -13.23   -9.50
   -6.64  -10.87   -8.58
    0.12  -10.78    5.32
   -9.68   -8.57    5.04
   -3.19  -11.56    3.21
   -9.12   -8.54   -9.46
    1.67  -11.31    1.48
   -0.40  -13.54   -7.68
   -7.70  -10.83   -0.61
   -7.32   -7.55   -8.67
  -10.14   -8.86   -7.79
    0.22  -14.50    7.60
  -10.21  -10.30    8.35
    3.57  -14.05   -7.77
   -2.44  -10.40   -2.06
   -3.58   -9.74    1.27
   -9.56  -10.88    9.47
   -1.57  -11.96   -6.74
   -3.75  -12.07   -8.45
   -6.59  -12.00   -0.58
   -1.61  -13.69    0.92
    2.23  -11.79   -6.86
   -4.07   -9.41   -4.01
   -9.01   -8.05   -8.13
    1.62  -11.73    6.66
   -5.92  -11.80    3.09
  -10.64   -8.31    7.50
   -9.81   -8.26   -8.69
    4.42  -13.79   -0.39
    0.77  -13.72    5.39
   -3.34   -9.45    5.93
   -8.20   -9.66   -4.99
   -6.27  -10.50    9.50
   -2.03  -14.36   -2.24
  -10.52   -9.90    5.75
   -0.61  -13.58   -0.97
   -4.69  -11.93    7.73
  -10.59   -9.88   -8.55
  -12.75   -5.74    4.78
    1.58  -12.83    2.56
  -10.30  -10.21    9.50
   -7.33  -12.51   -3.64
   -6.67  -11.81   -6.88
  -10.73   -8.20    8.49
   -8.50  -10.33   -0.27
   -2.15  -11.09   -4.73
   -8.93  -10.31    7.90
    0.12  -12.24    4.36
    4.60  -11.92   -4.69
    0.95  -12.64    0.50
   -1.79  -10.37    3.23
   -3.31  -13.22    3.08
  -10.26  -10.25   -2.31
  -11.10   -6.98   -0.60
   -1.12  -11.87    5.78
  -11.98   -7.78    6.16
    1.23  -11.92   -4.74
   -2.96  -14.19   -2.93
   -7.73  -11.14    9.50
   -6.80  -10.95   -6.37
   -7.41  -11.09    6.75
   -7.37  -12.49   -1.01
   -1.48  -14.42   -1.33
   -9.73   -8.27   -7.08
   -8.00   -9.31   -4.06
   -3.64  -10.40   -9.44
  -11.82   -8.37   -3.12
    3.51  -14.07    5.54
   -3.77  -13.13   -8.67
   -0.07  -12.01   -6.87
   -8.81  -11.41   -6.24
   -1.28  -12.13   -2.17
   -1.87  -11.95   -3.38
   -6.78  -12.82   -5.60
  -12.34   -7.49   -1.33
   -3.77  -14.00    5.06
  -12.15   -6.80    6.02
    0.10  -13.37   -6.82
    1.08  -12.65    1.53
   -8.85  -11.48   -3.47
    0.18  -13.27   -0.44
    4.96  -12.57    1.32
   -0.87  -13.51   -3.62
    1.78  -12.11    8.22
    0.31  -14.50   -3.21
   -6.76  -11.85    8.99
    4.53  -13.78    5.23
    2.48  -14.29   -0.09
   -9.46   -9.65   -1.56
   -9.18  -11.14   -5.35
   -6.63   -8.34   -7.96
   -6.42   -8.72    4.01
   -2.84  -13.42    6.50
   -3.89   -9.75   -8.30
   -2.07  -12.86   -7.73
  -12.37   -7.55    7.05
   -5.99  -13.21   -3.10
   -2.22  -12.75   -3.86
    1.61  -14.05    8.59
    2.67  -14.25   -5.06
   -3.80  -11.07   -8.58
    3.73  -14.01   -4.88
   -2.37  -14.30    5.84
   -4.11  -11.92   -5.49
   -9.97  -10.49    7.40
   -9.38   -7.55   -3.66
   -2.44  -10.06    6.08
   -9.33  -11.06    5.74
   -1.46  -14.43   -9.50
   -2.11   -9.92    7.21
    0.05  -11.92    8.62
  -11.00   -9.45   -6.39
   -4.21   -9.61    9.50
   -4.16   -9.64    4.62
   -3.31  -14.12    1.72
   -0.76  -14.46    7.41
   -0.03  -10.68   -5.84
   -9.91  -10.58   -5.74
  -13.45   -5.41    9.45
   -3.95  -10.99   -4.07
   -7.19  -10.60   -9.48
  -11.45   -6.67   -3.09
   -1.56  -12.27    9.50
   -7.13  -12.62   -4.63
    3.59  -14.05    4.13
   -9.39   -7.75    4.49
  -10.55   -9.90   -3.21
   -5.91  -12.31   -5.08
   -4.65  -13.73   -9.50
   -3.84  -10.57   -6.93
   -9.52  -10.93   -4.04
   -3.03  -13.27   -5.96
   -7.33  -10.27    5.76
    1.31  -14.44   -9.50
   -8.73   -9.45   -9.32
   -9.87  -10.63   -3.15
   -5.97  -10.29    0.88
    2.81  -13.63   -7.24
  -11.00   -8.00   -9.50
   -0.83  -10.55    7.93
   -7.12   -9.59    3.39
   -9.91  -10.58   -8.33
  -10.48   -8.06    5.37
   -7.11  -12.63    9.50
   -6.36   -9.40    1.97
[...]
POINT_DATA 2000
SCALARS radius float
LOOKUP_TABLE default
  0.500000000000000     
  0.500000000000000     
  0.500000000000000     
  0.500000000000000     
  0.500000000000000     
  0.500000000000000     
  0.500000000000000     
  0.500000000000000     
  0.500000000000000     
  0.500000000000000     
  0.500000000000000     
  0.500000000000000     
  0.500000000000000     
  0.500000000000000     
  0.500000000000000     
  0.500000000000000     
  0.500000000000000     
  0.500000000000000     
  0.500000000000000     
  0.500000000000000     
  0.500000000000000     
  0.500000000000000     
  0.500000000000000     
  0.500000000000000     
  0.500000000000000     
  0.500000000000000     
  0.500000000000000     
  0.500000000000000     
  0.500000000000000     
  0.500000000000000     
  0.500000000000000     
  0.500000000000000     
  0.500000000000000     
  0.500000000000000     
  0.500000000000000     
  0.500000000000000     
  0.500000000000000     
  0.500000000000000     
  0.500000000000000     
  0.500000000000000     
  0.500000000000000     
  0.500000000000000     
  0.500000000000000     
  0.500000000000000     
  0.500000000000000     
  0.500000000000000     
  0.500000000000000     
  0.500000000000000     
  0.500000000000000     
  0.500000000000000     
  0.500000000000000     
  0.500000000000000     
  0.500000000000000     
  0.500000000000000     
  0.500000000000000     
  0.500000000000000     
  0.500000000000000     
  0.500000000000000     
  0.500000000000000     
  0.500000000000000     
  0.500000000000000     
  0.500000000000000     
  0.500000000000000     
  0.500000000000000     
  0.500000000000000     
  0.500000000000000     
  0.500000000000000     
  0.500000000000000     
  0.500000000000000     
  0.500000000000000     
  0.500000000000000     
  0.500000000000000     
  0.500000000000000     
  0.500000000000000     
  0.500000000000000     
  0.500000000000000     
  0.500000000000000     
  0.500000000000000     
  0.500000000000000     
  0.500000000000000     
  0.500000000000000     
  0.500000000000000     
  0.500000000000000     
  0.500000000000000     
  0.500000000000000     
  0.500000000000000     
  0.500000000000000     
  0.500000000000000     
  0.500000000000000     
  0.500000000000000     
  0.500000000000000     
  0.500000000000000     
  0.500000000000000     
  0.500000000000000     
  0.500000000000000     
  0.500000000000000     
  0.500000000000000     
  0.500000000000000     
  0.500000000000000     
  0.500000000000000     
  0.500000000000000     
  0.500000000000000     
  0.500000000000000     
  0.500000000000000     
  0.500000000000000     
  0.500000000000000     
  0.500000000000000     
  0.500000000000000     
  0.500000000000000     
  0.500000000000000     
  0.500000000000000     
  0.500000000000000     
  0.500000000000000     
  0.500000000000000     
  0.500000000000000     
  0.500000000000000     
  0.500000000000000     
  0.500000000000000     
  0.500000000000000     
  0.500000000000000     
  0.500000000000000     
  0.500000000000000     
  0.500000000000000     
  0.500000000000000     
  0.500000000000000     
  0.500000000000000     
  0.500000000000000     
  0.500000000000000     
  0.500000000000000     
  0.500000000000000     
  0.500000000000000     
  0.500000000000000     
  0.500000000000000     
  0.500000000000000     
  0.500000000000000     
  0.500000000000000     
  0.500000000000000     
  0.500000000000000     
  0.500000000000000     
  0.500000000000000     
  0.500000000000000     
  0.500000000000000     
  0.500000000000000     
  0.500000000000000     
  0.500000000000000     
  0.500000000000000     
  0.500000000000000     
  0.500000000000000     
  0.500000000000000     
  0.500000000000000     
  0.500000000000000     
  0.500000000000000     
  0.500000000000000     
  0.500000000000000     
  0.500000000000000     
  0.500000000000000     
  0.500000000000000     
  0.500000000000000     
  0.500000000000000     
  0.500000000000000     
  0.500000000000000     
  0.500000000000000     
  0.500000000000000     
  0.500000000000000     
  0.500000000000000     
  0.500000000000000     
  0.500000000000000     
  0.500000000000000     
  0.500000000000000     
  0.500000000000000     
  0.500000000000000     
  0.500000000000000     
  0.500000000000000     
  0.500000000000000     
  0.500000000000000     
  0.500000000000000     
  0.500000000000000     
  0.500000000000000     
  0.500000000000000     
  0.500000000000000     
  0.500000000000000     
  0.500000000000000     
  0.500000000000000     
  0.500000000000000     
  0.500000000000000     
  0.500000000000000     
  0.500000000000000     
  0.500000000000000     
  0.500000000000000     
  0.500000000000000     
  0.500000000000000     
  0.500000000000000     
  0.500000000000000     
  0.500000000000000     
  0.500000000000000     
  0.500000000000000     
  0.500000000000000     
  0.500000000000000     
  0.500000000000000     
  0.500000000000000     
  0.500000000000000     
  0.500000000000000     
  0.500000000000000     
  0.500000000000000     
  0.500000000000000     
  0.500000000000000     
  0.500000000000000     
  0.500000000000000     
  0.500000000000000     
  0.500000000000000     
  0.500000000000000     
  0.500000000000000     
  0.500000000000000     
  0.500000000000000     
  0.500000000000000     
  0.500000000000000     
  0.500000000000000     
  0.500000000000000     
  0.500000000000000     
  0.500000000000000     
  0.500000000000000     
  0.500000000000000     
  0.500000000000000     
  0.500000000000000     
  0.500000000000000     
  0.500000000000000     
  0.500000000000000     
  0.500000000000000     
  0.500000000000000     
  0.500000000000000     
  0.500000000000000     
  0.500000000000000     
  0.500000000000000     
  0.500000000000000     
  0.500000000000000     
  0.500000000000000     
  0.500000000000000     
  0.500000000000000     
  0.500000000000000     
  0.500000000000000     
  0.500000000000000     
  0.500000000000000     
  0.500000000000000     
  0.500000000000000     
  0.500000000000000     
  0.500000000000000     
  0.500000000000000     
  0.500000000000000     
  0.500000000000000     
  0.500000000000000     
  0.500000000000000     
  0.500000000000000     
  0.500000000000000     
  0.500000000000000     
  0.500000000000000     
  0.500000000000000     
  0.500000000000000     
  0.500000000000000     
  0.500000000000000     
  0.500000000000000     
  0.500000000000000     
  0.500000000000000     
  0.500000000000000     
  0.500000000000000     
  0.500000000000000     
  0.500000000000000     
  0.500000000000000     
  0.500000000000000     
  0.500000000000000     
  0.500000000000000     
  0.500000000000000     
  0.500000000000000     
  0.500000000000000     
  0.500000000000000     
  0.500000000000000     
  0.500000000000000     
  0.500000000000000     
  0.500000000000000     
  0.500000000000000     
  0.500000000000000     
  0.500000000000000     
  0.500000000000000     
  0.500000000000000     
  0.500000000000000     
  0.500000000000000     
  0.500000000000000     
  0.500000000000000     
  0.500000000000000     
  0.500000000000000     
  0.500000000000000     
  0.500000000000000     
  0.500000000000000     
  0.500000000000000     
  0.500000000000000     
  0.500000000000000     
  0.500000000000000     
  0.500000000000000     
  0.500000000000000     
  0.500000000000000     
  0.500000000000000     
  0.500000000000000     
  0.500000000000000     
  0.500000000000000     
  0.500000000000000     
  0.500000000000000     
  0.500000000000000     
  0.500000000000000     
  0.500000000000000     
  0.500000000000000     
  0.500000000000000     
  0.500000000000000     
  0.500000000000000     
  0.500000000000000     
  0.500000000000000     
  0.500000000000000     
  0.500000000000000     
  0.500000000000000     
  0.500000000000000     
  0.500000000000000     
  0.500000000000000     
  0.500000000000000     
  0.500000000000000     
  0.500000000000000     
  0.500000000000000     
  0.500000000000000     
  0.500000000000000     
  0.500000000000000     
  0.500000000000000     
  0.500000000000000     
  0.500000000000000     
  0.500000000000000     
  0.500000000000000     
  0.500000000000000     
  0.500000000000000     
  0.500000000000000     
  0.500000000000000     
  0.500000000000000     
  0.500000000000000     
  0.500000000000000     
  0.500000000000000     
  0.500000000000000     
  0.500000000000000     
  0.500000000000000     
  0.500000000000000     
  0.500000000000000     
  0.500000000000000     
  0.500000000000000     
  0.500000000000000     
  0.500000000000000     
  0.500000000000000     
  0.500000000000000     
  0.500000000000000     
  0.500000000000000     
  0.500000000000000     
  0.500000000000000     
  0.500000000000000     
  0.500000000000000     
  0.500000000000000     
  0.500000000000000     
  0.500000000000000     
  0.500000000000000     
  0.500000000000000     
  0.500000000000000     
  0.500000000000000     
  0.500000000000000     
  0.500000000000000     
  0.500000000000000     
  0.500000000000000     
  0.500000000000000     
  0.500000000000000     
  0.500000000000000     
  0.500000000000000     
  0.500000000000000     
  0.500000000000000     
  0.500000000000000     
  0.500000000000000     
  0.500000000000000     
  0.500000000000000     
  0.500000000000000     
  0.500000000000000     
  0.500000000000000     
  0.500000000000000     
  0.500000000000000     
  0.500000000000000     
  0.500000000000000     
  0.500000000000000     
  0.500000000000000     
  0.500000000000000     
  0.500000000000000     
  0.500000000000000     
  0.500000000000000     
  0.500000000000000     
  0.500000000000000     
  0.500000000000000     
  0.500000000000000     
  0.500000000000000     
  0.500000000000000     
  0.500000000000000     
  0.500000000000000     
  0.500000000000000     
  0.500000000000000     
  0.500000000000000     
  0.500000000000000     
  0.500000000000000     
  0.500000000000000     
  0.500000000000000     
  0.500000000000000     
  0.500000000000000     
  0.500000000000000     
  0.500000000000000     
  0.500000000000000     
  0.500000000000000     
  0.500000000000000     
  0.500000000000000     
  0.500000000000000     
  0.500000000000000     
  0.500000000000000     
  0.500000000000000     
  0.500000000000000     
  0.500000000000000     
  0.500000000000000     
  0.500000000000000     
  0.500000000000000     
  0.500000000000000     
  0.500000000000000     
  0.500000000000000     
  0.500000000000000     
  0.500000000000000     
  0.500000000000000     
  0.500000000000000     
  0.500000000000000     
  0.500000000000000     
  0.500000000000000     
  0.500000000000000     
  0.500000000000000     
  0.500000000000000     
  0.500000000000000     
  0.500000000000000     
  0.500000000000000     
  0.500000000000000     
  0.500000000000000     
  0.500000000000000     
  0.500000000000000     
  0.500000000000000     
  0.500000000000000     
  0.500000000000000     
  0.500000000000000     
  0.500000000000000     
  0.500000000000000     
  0.500000000000000     
  0.500000000000000     
  0.500000000000000     
  0.500000000000000     
  0.500000000000000     
  0.500000000000000     
  0.500000000000000     
  0.500000000000000     
  0.500000000000000     
  0.500000000000000     
  0.500000000000000     
  0.500000000000000     
  0.500000000000000     
  0.500000000000000     
  0.500000000000000     
  0.500000000000000     
  0.500000000000000     
  0.500000000000000     
  0.500000000000000     
  0.500000000000000     
  0.500000000000000     
  0.500000000000000     
  0.500000000000000     
  0.500000000000000     
  0.500000000000000     
  0.500000000000000     
  0.500000000000000     
  0.500000000000000     
  0.500000000000000     
  0.500000000000000     
  0.500000000000000     
  0.500000000000000     
  0.500000000000000     
  0.500000000000000     
  0.500000000000000     
  0.500000000000000     
  0.500000000000000     
  0.500000000000000     
  0.500000000000000     
  0.500000000000000     
  0.500000000000000     
  0.500000000000000     
  0.500000000000000     
  0.500000000000000     
  0.500000000000000     
  0.500000000000000     
  0.500000000000000     
  0.500000000000000     
  0.500000000000000     
  0.500000000000000     
  0.500000000000000     
  0.500000000000000     
  0.500000000000000     
  0.500000000000000     
  0.500000000000000     
  0.500000000000000     
  0.500000000000000     
  0.500000000000000     
  0.500000000000000     
  0.500000000000000     
  0.500000000000000     
  0.500000000000000     
  0.500000000000000     
  0.500000000000000     
  0.500000000000000     
  0.500000000000000     
  0.500000000000000     
  0.500000000000000     
  0.500000000000000     
  0.500000000000000     
  0.500000000000000     
  0.500000000000000     
  0.500000000000000     
  0.500000000000000     
  0.500000000000000     
  0.500000000000000     
  0.500000000000000     
  0.500000000000000     
  0.500000000000000     
  0.500000000000000     
  0.500000000000000     
  0.500000000000000     
  0.500000000000000     
  0.500000000000000     
  0.500000000000000     
  0.500000000000000     
  0.500000000000000     
  0.500000000000000     
  0.500000000000000     
  0.500000000000000     
  0.500000000000000     
  0.500000000000000     
  0.500000000000000     
  0.500000000000000     
  0.500000000000000     
  0.500000000000000     
  0.500000000000000     
  0.500000000000000     
  0.500000000000000     
  0.500000000000000     
  0.500000000000000     
  0.500000000000000     
  0.500000000000000     
  0.500000000000000     
  0.500000000000000     
  0.500000000000000     
  0.500000000000000     
  0.500000000000000     
  0.500000000000000     
  0.500000000000000     
  0.500000000000000     
  0.500000000000000     
  0.500000000000000     
  0.500000000000000     
  0.500000000000000     
  0.500000000000000     
  0.500000000000000     
  0.500000000000000     
  0.500000000000000     
  0.500000000000000     
  0.500000000000000     
  0.500000000000000     
  0.500000000000000     
  0.500000000000000     
  0.500000000000000     
  0.500000000000000     
  0.500000000000000     
  0.500000000000000     
  0.500000000000000     
  0.500000000000000     
  0.500000000000000     
  0.500000000000000     
  0.500000000000000     
  0.500000000000000     
  0.500000000000000     
  0.500000000000000     
  0.500000000000000     
  0.500000000000000     
  0.500000000000000     
  0.500000000000000     
  0.500000000000000     
  0.500000000000000     
  0.500000000000000     
  0.500000000000000     
  0.500000000000000     
  0.500000000000000     
  0.500000000000000     
  0.500000000000000     
  0.500000000000000     
  0.500000000000000     
  0.500000000000000     
  0.500000000000000     
  0.500000000000000     
  0.500000000000000     
  0.500000000000000     
  0.500000000000000     
  0.500000000000000     
  0.500000000000000     
  0.500000000000000     
  0.500000000000000     
  0.500000000000000     
  0.500000000000000     
  0.500000000000000     
  0.500000000000000     
  0.500000000000000     
  0.500000000000000     
  0.500000000000000     
  0.500000000000000     
  0.500000000000000     
  0.500000000000000     
  0.500000000000000     
  0.500000000000000     
  0.500000000000000     
  0.500000000000000     
  0.500000000000000     
  0.500000000000000     
  0.500000000000000     
  0.500000000000000     
  0.500000000000000     
  0.500000000000000     
  0.500000000000000     
  0.500000000000000     
  0.500000000000000     
  0.500000000000000     
  0.500000000000000     
  0.500000000000000     
  0.500000000000000     
  0.500000000000000     
  0.500000000000000     
  0.500000000000000     
  0.500000000000000     
  0.500000000000000     
  0.500000000000000     
  0.500000000000000     
  0.500000000000000     
  0.500000000000000     
  0.500000000000000     
  0.500000000000000     
  0.500000000000000     
  0.500000000000000     
  0.500000000000000     
  0.500000000000000     
  0.500000000000000     
  0.500000000000000     
  0.500000000000000     
  0.500000000000000     
  0.500000000000000     
  0.500000000000000     
  0.500000000000000     
  0.500000000000000     
  0.500000000000000     
  0.500000000000000     
  0.500000000000000     
  0.500000000000000     
  0.500000000000000     
  0.500000000000000     
  0.500000000000000     
  0.500000000000000     
  0.500000000000000     
  0.500000000000000     
  0.500000000000000     
  0.500000000000000     
  0.500000000000000     
  0.500000000000000     
  0.500000000000000     
  0.500000000000000     
  0.500000000000000     
  0.500000000000000     
  0.500000000000000     
  0.500000000000000     
  0.500000000000000     
  0.500000000000000     
  0.500000000000000     
  0.500000000000000     
  0.500000000000000     
  0.500000000000000     
  0.500000000000000     
  0.500000000000000     
  0.500000000000000     
  0.500000000000000     
  0.500000000000000     
  0.500000000000000     
  0.500000000000000     
  0.500000000000000     
  0.500000000000000     
  0.500000000000000     
  0.500000000000000     
  0.500000000000000     
  0.500000000000000     
  0.500000000000000     
  0.500000000000000     
  0.500000000000000     
  0.500000000000000     
  0.500000000000000     
  0.500000000000000     
  0.500000000000000     
  0.500000000000000     
  0.500000000000000     
  0.500000000000000     
  0.500000000000000     
  0.500000000000000     
  0.500000000000000     
  0.500000000000000     
  0.500000000000000     
  0.500000000000000     
  0.500000000000000     
  0.500000000000000     
  0.500000000000000     
  0.500000000000000     
  0.500000000000000     
  0.500000000000000     
  0.500000000000000     
  0.500000000000000     
  0.500000000000000     
  0.500000000000000     
  0.500000000000000     
  0.500000000000000     
  0.500000000000000     
  0.500000000000000     
  0.500000000000000     
  0.500000000000000     
  0.500000000000000     
  0.500000000000000     
  0.500000000000000     
  0.500000000000000     
  0.500000000000000     
  0.500000000000000     
  0.500000000000000     
  0.500000000000000     
  0.500000000000000     
  0.500000000000000     
  0.500000000000000     
  0.500000000000000     
  0.500000000000000     
  0.500000000000000     
  0.500000000000000     
  0.500000000000000     
  0.500000000000000     
  0.500000000000000     
  0.500000000000000     
  0.500000000000000     
  0.500000000000000     
  0.500000000000000     
  0.500000000000000     
  0.500000000000000     
  0.500000000000000     
  0.500000000000000     
  0.500000000000000     
  0.500000000000000     
  0.500000000000000     
  0.500000000000000     
  0.500000000000000     
  0.500000000000000     
  0.500000000000000     
  0.500000000000000     
  0.500000000000000     
  0.500000000000000     
  0.500000000000000     
  0.500000000000000     
  0.500000000000000     
  0.500000000000000     
  0.500000000000000     
  0.500000000000000     
  0.500000000000000     
  0.500000000000000     
  0.500000000000000     
  0.500000000000000     
  0.500000000000000     
  0.500000000000000     
  0.500000000000000     
  0.500000000000000     
  0.500000000000000     
  0.500000000000000     
  0.500000000000000     
  0.500000000000000     
  0.500000000000000     
  0.500000000000000     
  0.500000000000000     
  0.500000000000000     
  0.500000000000000     
  0.500000000000000     
  0.500000000000000     
  0.500000000000000     
  0.500000000000000     
  0.500000000000000     
  0.500000000000000     
  0.500000000000000     
  0.500000000000000     