# vtk DataFile Version 5.1
Data.vtk
ASCII
DATASET UNSTRUCTURED_GRID
 
POINTS 2000 float
   -8.28   -9.64   -0.43
   -2.99  -14.19    2.22
   -4.32  -10.08    2.18
   -5.05  -11.80   -1.51
    0.40  -13.55    7.38
   -2.23  -10.63   -8.51
   -9.97  -10.53   -8.64
   -1.07  -10.87   -6.17
   -5.51  -13.41   -5.35
   -4.54  -12.97   -0.86
    3.49  -12.92   -4.02
    0.05  -10.76   -7.83
   -6.37  -11.03   -0.70
   -7.46  -10.55    0.86
    2.96  -13.40   -1.92
   -6.16  -13.13    1.20
   -5.61  -12.38    5.94
   -5.49   -9.86    3.92
  -12.55   -7.12    7.39
   -4.51  -10.61   -3.10
   -1.72  -10.05   -0.09
  -10.43   -7.13    5.31
   -0.82  -12.55   -9.50
   -7.71   -8.85   -4.50
   -4.63  -12.18    0.32
   -0.82  -14.48   -8.54
   -3.37  -10.17    4.80
   -2.40  -11.83    7.43
    0.67  -14.48   -0.85
    5.78  -13.30    5.32
   -3.61  -10.26   -2.27
   -1.52  -14.42   -1.77
   -3.53  -14.06    8.00
   -7.85  -10.90   -2.60
   -1.82  -10.72   -3.70
   -7.02   -9.80    5.84
    3.37  -13.16    7.94
    0.20  -12.57    6.20
    3.49  -13.29    1.44
   -6.26  -10.95    1.83
   -8.17  -11.98    2.43
    1.07  -11.14   -1.15
    3.69  -12.99   -7.27
   -5.15  -10.24    1.48
    1.63  -13.03   -7.60
  -10.10  -10.40    9.41
   -8.96  -11.40    4.00
   -4.15  -11.82   -4.21
  -10.51   -9.99    5.75
   -7.93   -8.86   -8.12
   -8.03  -10.22   -6.06
   -2.20  -10.98    9.50
    0.67  -12.64    7.74
   -5.63  -12.32    2.39
   -0.18  -13.75    5.38
   -4.39  -13.82    0.72
   -3.41  -14.09   -7.69
    5.72  -13.32    1.29
    4.02  -12.01   -0.14
   -1.20  -13.47   -9.27
    3.63  -13.27   -3.08
    5.47  -13.43   -7.90
   -3.04  -12.37    6.87
  -10.68   -7.65    2.86
  -12.73   -6.60    1.85
   -3.15  -13.34    0.43
    1.34  -12.62   -1.30
   -6.81  -11.69    4.12
   -4.56  -10.81   -0.79
   -9.50   -9.54   -4.04
    2.38  -14.30    8.58
   -9.22   -8.00   -5.24
   -7.45  -10.03   -2.90
    0.59  -14.49    6.52
   -7.51  -12.23    4.92
    2.84  -11.66   -4.87
   -4.91  -13.64    7.69
  -11.60   -8.57   -8.42
   -3.67  -13.07    2.12
   -5.94  -13.23   -2.93
  -11.43   -8.92    9.50
   -5.63  -13.35    6.18
   -3.53  -11.61   -1.32
   -9.59  -10.87   -9.50
   -4.66   -9.10   -5.64
   -5.27  -11.87   -5.51
    2.07  -11.96    0.38
   -6.05  -13.10   -7.20
    3.31  -14.12   -0.19
   -8.41  -10.70    7.41
   -9.95   -8.82    0.64
   -7.84   -9.88   -8.60
    3.47  -14.05   -4.11
    4.56  -12.81    7.04
   -9.53   -9.66    2.95
    0.44  -14.49   -3.92
    1.47  -12.97    2.11
    0.77  -14.05    5.50
  -12.52   -7.31   -0.30
    3.68  -14.01   -2.40
   -4.08  -11.05    2.25
   -4.76  -13.70   -4.75
    0.82  -14.48    1.05
   -4.12  -13.90    7.11
    6.24  -12.59    1.73
   -4.92  -13.64   -8.45
   -7.94   -9.56    4.42
    2.67  -14.25   -4.68
   -1.66  -10.14    3.70
   -1.06  -12.46    2.85
    4.69  -13.72    5.18
   -0.80  -13.69   -2.30
  -10.69   -9.79   -3.91
   -5.57  -12.16   -7.55
   -9.62   -8.67    3.09
  -10.54   -8.14   -9.43
    4.97  -12.34   -0.22
    4.81  -13.65   -6.58
   -9.46   -7.07    4.31
    1.58  -12.23    7.42
  -10.47  -10.03    8.55
    2.77  -14.23    9.50
   -3.54  -11.15    7.36
   -0.83  -14.48    4.65
    2.38  -14.30    0.16
   -6.40  -12.97   -5.27
  -11.61   -8.55   -6.46
    0.00  -11.41   -0.22
  -13.35   -5.37   -9.34
  -11.61   -8.64   -9.50
   -5.35  -11.05   -3.88
    0.15  -13.69    3.22
   -2.70  -14.25   -0.15
   -1.16  -14.43    0.83
   -0.15  -12.53   -8.76
   -3.81  -10.98    6.18
   -4.37   -9.65   -3.49
   -7.74   -8.42   -3.42
   -6.83  -11.75    9.49
   -9.67   -7.27    3.09
   -7.54  -11.41   -3.40
    3.08  -11.78    0.09
    0.39  -13.48   -5.58
    2.39  -12.21    6.30
    2.91  -14.16    6.23
   -5.91   -8.33    6.20
   -1.58  -12.55    5.48
   -5.82  -13.28   -9.44
   -8.82   -8.91   -5.63
   -5.83   -9.74   -7.14
   -7.58  -10.19    5.11
    1.24  -14.40   -1.68
    2.23  -14.33    5.31
    0.48  -14.49   -6.55
   -2.47  -11.58   -3.73
    3.92  -12.11    0.88
    1.14  -12.04    1.41
   -5.74  -13.29    8.16
    1.53  -12.81    6.01
   -9.58  -10.88    3.41
    3.22  -12.90   -8.17
   -8.34  -11.86    8.50
   -9.63   -9.10   -8.17
   -8.54  -11.71    0.46
   -1.99  -11.74   -8.48
   -0.60  -13.61    1.57
   -2.01  -11.78   -0.87
   -8.02   -7.69   -6.58
   -6.99  -12.70   -1.43
   -1.67  -12.67   -7.72
  -12.13   -6.53   -1.13
   -0.42  -13.56   -8.64
   -5.20  -11.68    7.91
    1.64  -14.41   -6.51
    1.62  -13.53    5.33
   -2.24  -14.33   -1.06
   -1.55  -11.64    7.97
    1.51  -11.98    8.38
    0.27  -14.47   -5.53
   -3.40  -12.68   -0.50
   -3.47   -9.73   -5.26
   -7.06  -12.66    1.20
   -9.43  -10.96   -0.82
   -1.80  -11.69   -9.49
   -6.30   -9.97    7.42
  -10.91   -8.34   -4.30
    5.04  -13.56   -4.70
   -5.12   -9.07   -2.44
    1.36  -11.36    4.94
   -0.16  -11.50   -1.20
   -2.25  -13.39   -1.84
   -4.48  -10.75    4.83
  -11.71   -6.19    7.60
   -0.16  -11.56   -8.51
   -4.59  -13.73   -5.75
   -9.81   -9.59    7.16
    1.75  -14.39   -9.50
   -9.94   -8.42   -4.69
    2.53  -12.16   -2.02
  -10.22  -10.24   -3.15
   -7.31  -11.70    5.75
  -10.78   -9.68    9.50
   -6.93  -11.13   -4.18
   -1.09  -13.62   -1.34
   -0.47  -11.38    1.83
    1.57  -11.57   -6.02
   -9.20  -11.21   -8.59
    1.17  -11.34    7.68
   -6.72  -12.85   -9.37
   -4.71  -10.14   -8.67
   -2.66  -13.30    6.84
   -4.67  -10.87   -7.97
   -3.33  -14.11    3.42
   -1.93  -11.52   -1.87
    0.73  -14.48   -9.50
   -8.09  -12.01   -0.38
   -4.19  -13.88    1.70
   -0.23  -11.54    3.91
   -0.27  -12.84   -7.09
    3.81  -12.29   -2.97
   -4.14  -13.90    9.50
   -9.01   -9.83    6.61
    0.70  -12.63   -7.45
   -0.24  -13.71   -3.12
  -11.13   -7.82    8.72
   -5.96  -10.97    9.50
    6.44  -12.98   -5.88
  -11.73   -8.38   -2.99
    1.16  -12.64    9.04
   -5.34   -9.31   -8.74
    1.64  -11.18   -2.52
   -5.90  -11.77    4.52
   -4.05  -10.65   -5.21
   -2.64  -12.72    7.82
   -3.52   -9.53   -4.22
    4.18  -12.28   -1.70
    0.31  -14.50    0.19
   -3.97  -13.95    2.67
   -6.17  -11.05    2.82
   -0.45  -12.16   -6.38
    0.84  -13.47    4.68
   -9.36  -11.07    9.50
    2.90  -11.73   -8.28
   -6.33   -8.83   -8.53
   -6.13  -13.14    3.58
    4.38  -13.82    0.48
   -7.86   -8.79   -9.28
   -6.26  -13.07   -2.00
   -3.16  -14.15    9.47
   -5.51  -10.15    8.01
    1.35  -13.69   -2.69
    0.80  -11.44   -8.79
   -2.54  -12.60   -8.52
   -9.17   -8.02    4.44
   -9.89  -10.42    6.43
   -4.46  -12.08    3.91
   -4.50  -12.28   -9.50
   -6.07   -9.11    2.71
    0.56  -11.96   -5.97
   -7.88  -11.13   -1.37
  -12.20   -7.83   -9.47
   -5.84  -12.34   -8.51
    4.20  -13.15    4.45
   -2.08  -14.35    8.50
    3.36  -12.14   -5.79
   -9.03   -8.14   -2.76
  -10.93   -6.72    3.33
    0.75  -14.48    9.50
   -3.31  -11.19   -7.29
   -1.04  -11.95   -8.25
   -6.28  -12.02   -0.83
    0.62  -13.57    0.53
   -7.08   -8.00   -6.46
  -12.04   -5.92   -8.01
   -8.20  -10.70   -9.48
   -4.72  -10.23    5.82
   -5.13  -12.42    3.25
   -8.38  -10.92    8.84
   -7.75  -10.83   -8.29
    2.55  -11.68   -0.79
    1.29  -12.58    4.62
   -9.93   -7.38    7.75
   -8.76  -10.37   -5.39
   -2.37  -12.32    9.50
    4.46  -13.80   -1.81
   -4.65  -13.74    5.28
    0.01  -13.83   -0.50
   -3.43  -12.11    7.76
   -2.91  -14.20   -8.55
   -9.19  -11.09    6.19
   -2.33  -11.17    2.32
   -0.59  -14.49    9.50
   -0.95  -14.47   -3.66
   -2.99  -13.28   -7.15
   -6.53  -11.91    8.55
   -8.51  -10.52   -0.86
   -6.80   -8.85   -5.01
   -5.99  -12.42    7.60
   -3.27  -11.23    4.76
   -3.12   -9.42   -3.31
    0.34  -12.93   -0.19
  -10.36   -6.62    4.36
   -2.10  -13.55    2.96
   -4.24  -13.87   -2.09
   -9.79  -10.67    0.12
   -5.45   -9.84    6.68
   -7.12  -12.63    6.17
   -7.66   -7.70   -4.73
    2.61  -13.73   -3.69
   -0.71  -13.49    9.50
   -6.02  -11.23   -6.89
   -5.29  -12.40    6.89
   -1.12  -14.46   -0.74
    4.37  -13.83   -0.79
   -8.55  -10.49   -7.79
   -8.42  -11.78   -4.61
   -5.47  -10.01   -9.45
   -6.82  -12.78   -2.78
    4.07  -13.03    2.43
    1.66  -13.13   -8.60
   -1.82  -11.84   -7.18
   -1.78  -14.39   -6.80
   -2.48  -12.32   -1.59
   -4.34  -11.59   -3.25
   -0.46  -14.49   -6.21
   -7.88  -12.16   -1.34
    2.90  -13.85    4.63
   -7.88  -12.17    6.62
   -1.18  -11.47   -5.14
   -1.38  -11.99    1.19
   -3.10  -14.16   -3.45
   -1.11  -12.18   -0.73
   -1.44  -10.48    0.76
    0.71  -13.65   -3.45
   -4.44  -10.23    7.96
    5.12  -13.09   -3.32
    0.32  -13.59    9.22
    4.23  -11.69    3.06
    4.75  -12.93   -1.19
   -9.92   -9.96   -1.81
   -2.41  -14.30   -6.00
  -12.71   -6.97   -9.49
  -11.86   -8.15    5.21
    0.27  -13.57    6.27
   -6.97   -9.49   -8.99
   -0.36  -11.93   -7.48
   -7.03  -12.68    7.21
    0.60  -14.49   -2.90
   -2.54  -12.74   -3.47
    0.47  -10.91    4.86
    1.65  -12.46   -4.04
   -3.10  -10.90   -9.36
    4.48  -12.95   -4.08
    2.49  -13.15    4.00
   -3.69  -12.60   -5.70
   -2.89  -14.21    7.19
   -9.87  -10.47   -4.09
   -8.40   -8.47    7.17
   -2.80  -14.23    5.92
    4.26  -12.81   -8.31
   -8.74   -8.32    8.29
   -3.06   -9.53    8.65
   -5.48  -13.42   -6.35
   -3.69  -10.08    9.50
  -11.77   -5.33    7.06
    3.46  -14.08    0.80
    1.90  -12.04    5.43
   -7.93   -9.24   -6.20
   -3.62  -14.04   -5.99
   -6.87  -12.77    9.50
   -7.92   -9.86   -5.07
   -1.81  -12.69   -9.49
  -11.28   -9.05   -3.59
   -0.35  -11.51    9.50
   -0.38  -14.48   -4.49
    5.01  -12.68    2.51
   -9.82  -10.67    5.46
   -4.89  -13.65   -3.76
   -3.33  -13.41   -5.22
    2.46  -12.55   -8.73
   -5.53  -10.61   -7.52
   -3.37  -14.10   -4.50
   -0.54  -13.70   -5.25
   -8.31  -10.53    6.43
    4.67  -13.07   -7.40
   -3.59  -11.78   -9.49
   -4.18  -13.88   -3.09
  -10.68   -7.54    0.36
    1.30  -12.56   -5.67
   -5.76  -12.28   -9.50
   -7.39   -8.01    7.33
  -11.48   -6.99    4.73
   -1.89  -14.38   -8.61
   -9.01  -11.20    5.21
    3.12  -13.56    8.84
  -11.27   -8.46    2.77
[...]
POINT_DATA 2000
SCALARS radius float
LOOKUP_TABLE default
  0.500000000000000     
  0.500000000000000     
  0.500000000000000     
  0.500000000000000     
  0.500000000000000     
  0.500000000000000     
  0.500000000000000     
  0.500000000000000     
  0.500000000000000     
  0.500000000000000     
  0.500000000000000     
  0.500000000000000     
  0.500000000000000     
  0.500000000000000     
  0.500000000000000     
  0.500000000000000     
  0.500000000000000     
  0.500000000000000     
  0.500000000000000     
  0.500000000000000     
  0.500000000000000     
  0.500000000000000     
  0.500000000000000     
  0.500000000000000     
  0.500000000000000     
  0.500000000000000     
  0.500000000000000     
  0.500000000000000     
  0.500000000000000     
  0.500000000000000     
  0.500000000000000     
  0.500000000000000     
  0.500000000000000     
  0.500000000000000     
  0.500000000000000     
  0.500000000000000     
  0.500000000000000     
  0.500000000000000     
  0.500000000000000     
  0.500000000000000     
  0.500000000000000     
  0.500000000000000     
  0.500000000000000     
  0.500000000000000     
  0.500000000000000     
  0.500000000000000     
  0.500000000000000     
  0.500000000000000     
  0.500000000000000     
  0.500000000000000     
  0.500000000000000     
  0.500000000000000     
  0.500000000000000     
  0.500000000000000     
  0.500000000000000     
  0.500000000000000     
  0.500000000000000     
  0.500000000000000     
  0.500000000000000     
  0.500000000000000     
  0.500000000000000     
  0.500000000000000     
  0.500000000000000     
  0.500000000000000     
  0.500000000000000     
  0.500000000000000     
  0.500000000000000     
  0.500000000000000     
  0.500000000000000     
  0.500000000000000     
  0.500000000000000     
  0.500000000000000     
  0.500000000000000     
  0.500000000000000     
  0.500000000000000     
  0.500000000000000     
  0.500000000000000     
  0.500000000000000     
  0.500000000000000     
  0.500000000000000     
  0.500000000000000     
  0.500000000000000     
  0.500000000000000     
  0.500000000000000     
  0.500000000000000     
  0.500000000000000     
  0.500000000000000     
  0.500000000000000     
  0.500000000000000     
  0.500000000000000     
  0.500000000000000     
  0.500000000000000     
  0.500000000000000     
  0.500000000000000     
  0.500000000000000     
  0.500000000000000     
  0.500000000000000     
  0.500000000000000     
  0.500000000000000     
  0.500000000000000     
  0.500000000000000     
  0.500000000000000     
  0.500000000000000     
  0.500000000000000     
  0.500000000000000     
  0.500000000000000     
  0.500000000000000     
  0.500000000000000     
  0.500000000000000     
  0.500000000000000     
  0.500000000000000     
  0.500000000000000     
  0.500000000000000     
  0.500000000000000     
  0.500000000000000     
  0.500000000000000     
  0.500000000000000     
  0.500000000000000     
  0.500000000000000     
  0.500000000000000     
  0.500000000000000     
  0.500000000000000     
  0.500000000000000     
  0.500000000000000     
  0.500000000000000     
  0.500000000000000     
  0.500000000000000     
  0.500000000000000     
  0.500000000000000     
  0.500000000000000     
  0.500000000000000     
  0.500000000000000     
  0.500000000000000     
  0.500000000000000     
  0.500000000000000     
  0.500000000000000     
  0.500000000000000     
  0.500000000000000     
  0.500000000000000     
  0.500000000000000     
  0.500000000000000     
  0.500000000000000     
  0.500000000000000     
  0.500000000000000     
  0.500000000000000     
  0.500000000000000     
  0.500000000000000     
  0.500000000000000     
  0.500000000000000     
  0.500000000000000     
  0.500000000000000     
  0.500000000000000     
  0.500000000000000     
  0.500000000000000     
  0.500000000000000     
  0.500000000000000     
  0.500000000000000     
  0.500000000000000     
  0.500000000000000     
  0.500000000000000     
  0.500000000000000     
  0.500000000000000     
  0.500000000000000     
  0.500000000000000     
  0.500000000000000     
  0.500000000000000     
  0.500000000000000     
  0.500000000000000     
  0.500000000000000     
  0.500000000000000     
  0.500000000000000     
  0.500000000000000     
  0.500000000000000     
  0.500000000000000     
  0.500000000000000     
  0.500000000000000     
  0.500000000000000     
  0.500000000000000     
  0.500000000000000     
  0.500000000000000     
  0.500000000000000     
  0.500000000000000     
  0.500000000000000     
  0.500000000000000     
  0.500000000000000     
  0.500000000000000     
  0.500000000000000     
  0.500000000000000     
  0.500000000000000     
  0.500000000000000     
  0.500000000000000     
  0.500000000000000     
  0.500000000000000     
  0.500000000000000     
  0.500000000000000     
  0.500000000000000     
  0.500000000000000     
  0.500000000000000     
  0.500000000000000     
  0.500000000000000     
  0.500000000000000     
  0.500000000000000     
  0.500000000000000     
  0.500000000000000     
  0.500000000000000     
  0.500000000000000     
  0.500000000000000     
  0.500000000000000     
  0.500000000000000     
  0.500000000000000     
  0.500000000000000     
  0.500000000000000     
  0.500000000000000     
  0.500000000000000     
  0.500000000000000     
  0.500000000000000     
  0.500000000000000     
  0.500000000000000     
  0.500000000000000     
  0.500000000000000     
  0.500000000000000     
  0.500000000000000     
  0.500000000000000     
  0.500000000000000     
  0.500000000000000     
  0.500000000000000     
  0.500000000000000     
  0.500000000000000     
  0.500000000000000     
  0.500000000000000     
  0.500000000000000     
  0.500000000000000     
  0.500000000000000     
  0.500000000000000     
  0.500000000000000     
  0.500000000000000     
  0.500000000000000     
  0.500000000000000     
  0.500000000000000     
  0.500000000000000     
  0.500000000000000     
  0.500000000000000     
  0.500000000000000     
  0.500000000000000     
  0.500000000000000     
  0.500000000000000     
  0.500000000000000     
  0.500000000000000     
  0.500000000000000     
  0.500000000000000     
  0.500000000000000     
  0.500000000000000     
  0.500000000000000     
  0.500000000000000     
  0.500000000000000     
  0.500000000000000     
  0.500000000000000     
  0.500000000000000     
  0.500000000000000     
  0.500000000000000     
  0.500000000000000     
  0.500000000000000     
  0.500000000000000     
  0.500000000000000     
  0.500000000000000     
  0.500000000000000     
  0.500000000000000     
  0.500000000000000     
  0.500000000000000     
  0.500000000000000     
  0.500000000000000     
  0.500000000000000     
  0.500000000000000     
  0.500000000000000     
  0.500000000000000     
  0.500000000000000     
  0.500000000000000     
  0.500000000000000     
  0.500000000000000     
  0.500000000000000     
  0.500000000000000     
  0.500000000000000     
  0.500000000000000     
  0.500000000000000     
  0.500000000000000     
  0.500000000000000     
  0.500000000000000     
  0.500000000000000     
  0.500000000000000     
  0.500000000000000     
  0.500000000000000     
  0.500000000000000     
  0.500000000000000     
  0.500000000000000     
  0.500000000000000     
  0.500000000000000     
  0.500000000000000     
  0.500000000000000     
  0.500000000000000     
  0.500000000000000     
  0.500000000000000     
  0.500000000000000     
  0.500000000000000     
  0.500000000000000     
  0.500000000000000     
  0.500000000000000     
  0.500000000000000     
  0.500000000000000     
  0.500000000000000     
  0.500000000000000     
  0.500000000000000     
  0.500000000000000     
  0.500000000000000     
  0.500000000000000     
  0.500000000000000     
  0.500000000000000     
  0.500000000000000     
  0.500000000000000     
  0.500000000000000     
  0.500000000000000     
  0.500000000000000     
  0.500000000000000     
  0.500000000000000     
  0.500000000000000     
  0.500000000000000     
  0.500000000000000     
  0.500000000000000     
  0.500000000000000     
  0.500000000000000     
  0.500000000000000     
  0.500000000000000     
  0.500000000000000     
  0.500000000000000     
  0.500000000000000     
  0.500000000000000     
  0.500000000000000     
  0.500000000000000     
  0.500000000000000     
  0.500000000000000     
  0.500000000000000     
  0.500000000000000     
  0.500000000000000     
  0.500000000000000     
  0.500000000000000     
  0.500000000000000     
  0.500000000000000     
  0.500000000000000     
  0.500000000000000     
  0.500000000000000     
  0.500000000000000     
  0.500000000000000     
  0.500000000000000     
  0.500000000000000     
  0.500000000000000     
  0.500000000000000     
  0.500000000000000     
  0.500000000000000     
  0.500000000000000     
  0.500000000000000     
  0.500000000000000     
  0.500000000000000     
  0.500000000000000     
  0.500000000000000     
  0.500000000000000     
  0.500000000000000     
  0.500000000000000     
  0.500000000000000     
  0.500000000000000     
  0.500000000000000     
  0.500000000000000     
  0.500000000000000     
  0.500000000000000     
  0.500000000000000     
  0.500000000000000     
  0.500000000000000     
  0.500000000000000     
  0.500000000000000     
  0.500000000000000     
  0.500000000000000     
  0.500000000000000     
  0.500000000000000     
  0.500000000000000     
  0.500000000000000     
  0.500000000000000     
  0.500000000000000     
  0.500000000000000     
  0.500000000000000     
  0.500000000000000     
  0.500000000000000     
  0.500000000000000     
  0.500000000000000     
  0.500000000000000     
  0.500000000000000     
  0.500000000000000     
  0.500000000000000     
  0.500000000000000     
  0.500000000000000     
  0.500000000000000     
  0.500000000000000     
  0.500000000000000     
  0.500000000000000     
  0.500000000000000     
  0.500000000000000     
  0.500000000000000     
  0.500000000000000     
  0.500000000000000     
  0.500000000000000     
  0.500000000000000     
  0.500000000000000     
  0.500000000000000     
  0.500000000000000     
  0.500000000000000     
  0.500000000000000     
  0.500000000000000     
  0.500000000000000     
  0.500000000000000     
  0.500000000000000     
  0.500000000000000     
  0.500000000000000     
  0.500000000000000     
  0.500000000000000     
  0.500000000000000     
  0.500000000000000     
  0.500000000000000     
  0.500000000000000     
  0.500000000000000     
  0.500000000000000     
  0.500000000000000     
  0.500000000000000     
  0.500000000000000     
  0.500000000000000     
  0.500000000000000     
  0.500000000000000     
  0.500000000000000     
  0.500000000000000     
  0.500000000000000     
  0.500000000000000     
  0.500000000000000     
  0.500000000000000     
  0.500000000000000     
  0.500000000000000     
  0.500000000000000     
  0.500000000000000     
  0.500000000000000     
  0.500000000000000     
  0.500000000000000     
  0.500000000000000     
  0.500000000000000     
  0.500000000000000     
  0.500000000000000     
  0.500000000000000     
  0.500000000000000     
  0.500000000000000     
  0.500000000000000     
  0.500000000000000     
  0.500000000000000     
  0.500000000000000     
  0.500000000000000     
  0.500000000000000     
  0.500000000000000     
  0.500000000000000     
  0.500000000000000     
  0.500000000000000     
  0.500000000000000     
  0.500000000000000     
  0.500000000000000     
  0.500000000000000     
  0.500000000000000     
  0.500000000000000     
  0.500000000000000     
  0.500000000000000     
  0.500000000000000     
  0.500000000000000     
  0.500000000000000     
  0.500000000000000     
  0.500000000000000     
  0.500000000000000     
  0.500000000000000     
  0.500000000000000     
  0.500000000000000     
  0.500000000000000     
  0.500000000000000     
  0.500000000000000     
  0.500000000000000     
  0.500000000000000     
  0.500000000000000     
  0.500000000000000     
  0.500000000000000     
  0.500000000000000     
  0.500000000000000     
  0.500000000000000     
  0.500000000000000     
  0.500000000000000     
  0.500000000000000     
  0.500000000000000     
  0.500000000000000     
  0.500000000000000     
  0.500000000000000     
  0.500000000000000     
  0.500000000000000     
  0.500000000000000     
  0.500000000000000     
  0.500000000000000     
  0.500000000000000     
  0.500000000000000     
  0.500000000000000     
  0.500000000000000     
  0.500000000000000     
  0.500000000000000     
  0.500000000000000     
  0.500000000000000     
  0.500000000000000     
  0.500000000000000     
  0.500000000000000     
  0.500000000000000     
  0.500000000000000     
  0.500000000000000     
  0.500000000000000     
  0.500000000000000     
  0.500000000000000     
  0.500000000000000     
  0.500000000000000     
  0.500000000000000     
  0.500000000000000     
  0.500000000000000     
  0.500000000000000     
  0.500000000000000     
  0.500000000000000     
  0.500000000000000     
  0.500000000000000     
  0.500000000000000     
  0.500000000000000     
  0.500000000000000     
  0.500000000000000     
  0.500000000000000     
  0.500000000000000     
  0.500000000000000     
  0.500000000000000     
  0.500000000000000     
  0.500000000000000     
  0.500000000000000     
  0.500000000000000     
  0.500000000000000     
  0.500000000000000     
  0.500000000000000     
  0.500000000000000     
  0.500000000000000     
  0.500000000000000     
  0.500000000000000     
  0.500000000000000     
  0.500000000000000     
  0.500000000000000     
  0.500000000000000     
  0.500000000000000     
  0.500000000000000     
  0.500000000000000     
  0.500000000000000     
  0.500000000000000     
  0.500000000000000     
  0.500000000000000     
  0.500000000000000     
  0.500000000000000     
  0.500000000000000     
  0.500000000000000     
  0.500000000000000     
  0.500000000000000     
  0.500000000000000     
  0.500000000000000     
  0.500000000000000     
  0.500000000000000     
  0.500000000000000     
  0.500000000000000     
  0.500000000000000     
  0.500000000000000     
  0.500000000000000     
  0.500000000000000     
  0.500000000000000     
  0.500000000000000     
  0.500000000000000     
  0.500000000000000     
  0.500000000000000     
  0.500000000000000     
  0.500000000000000     
  0.500000000000000     
  0.500000000000000     
  0.500000000000000     
  0.500000000000000     
  0.500000000000000     
  0.500000000000000     
  0.500000000000000     
  0.500000000000000     
  0.500000000000000     
  0.500000000000000     
  0.500000000000000     
  0.500000000000000     
  0.500000000000000     
  0.500000000000000     
  0.500000000000000     
  0.500000000000000     
  0.500000000000000     
  0.500000000000000     
  0.500000000000000     
  0.500000000000000     
  0.500000000000000     
  0.500000000000000     
  0.500000000000000     
  0.500000000000000     
  0.500000000000000     
  0.500000000000000     
  0.500000000000000     
  0.500000000000000     
  0.500000000000000     
  0.500000000000000     
  0.500000000000000     
  0.500000000000000     
  0.500000000000000     
  0.500000000000000     
  0.500000000000000     
  0.500000000000000     
  0.500000000000000     
  0.500000000000000     
  0.500000000000000     
  0.500000000000000     
  0.500000000000000     
  0.500000000000000     
  0.500000000000000     
  0.500000000000000     
  0.500000000000000     
  0.500000000000000     
  0.500000000000000     
  0.500000000000000     
  0.500000000000000     
  0.500000000000000     
  0.500000000000000     
  0.500000000000000     
  0.500000000000000     
  0.500000000000000     
  0.500000000000000     
  0.500000000000000     
  0.500000000000000     
  0.500000000000000     
  0.500000000000000     
  0.500000000000000     
  0.500000000000000     
  0.500000000000000     
  0.500000000000000     
  0.500000000000000     
  0.500000000000000     
  0.500000000000000     
  0.500000000000000     
  0.500000000000000     
  0.500000000000000     
  0.500000000000000     
  0.500000000000000     
  0.500000000000000     
  0.500000000000000     
  0.500000000000000     
  0.500000000000000     
  0.500000000000000     
  0.500000000000000     
  0.500000000000000     
  0.500000000000000     
  0.500000000000000     
  0.500000000000000     
  0.500000000000000     
  0.500000000000000     
  0.500000000000000     
  0.500000000000000     
  0.500000000000000     
  0.500000000000000     
  0.500000000000000     
  0.500000000000000     
  0.500000000000000     
  0.500000000000000     
  0.500000000000000     
  0.500000000000000     
  0.500000000000000     
  0.500000000000000     
  0.500000000000000     
  0.500000000000000     
  0.500000000000000     
  0.500000000000000     
  0.500000000000000     
  0.500000000000000     
  0.500000000000000     
  0.500000000000000     
  0.500000000000000     
  0.500000000000000     
  0.500000000000000     
  0.500000000000000     
  0.500000000000000     
  0.500000000000000     
  0.500000000000000     
  0.500000000000000     
  0.500000000000000     
  0.500000000000000     
  0.500000000000000     
  0.500000000000000     
  0.500000000000000     
  0.500000000000000     
  0.500000000000000     
  0.500000000000000     
  0.500000000000000     
  0.500000000000000     
  0.500000000000000     
  0.500000000000000     
  0.500000000000000     
  0.500000000000000     
  0.500000000000000     
  0.500000000000000     
  0.500000000000000     
  0.500000000000000     
  0.500000000000000     
  0.500000000000000     
  0.500000000000000     
  0.500000000000000     
  0.500000000000000     
  0.500000000000000     
  0.500000000000000     
  0.500000000000000     
  0.500000000000000     
  0.500000000000000     
  0.500000000000000     
  0.500000000000000     
  0.500000000000000     
  0.500000000000000     
  0.500000000000000     
  0.500000000000000     
  0.500000000000000     
  0.500000000000000     
  0.500000000000000     
  0.500000000000000     
  0.500000000000000     
  0.500000000000000     
  0.500000000000000     
  0.500000000000000     
  0.500000000000000     
  0.500000000000000     
  0.500000000000000     
  0.500000000000000     
  0.500000000000000     
  0.500000000000000     
  0.500000000000000     
  0.500000000000000     
  0.500000000000000     
  0.500000000000000     
  0.500000000000000     
  0.500000000000000     
  0.500000000000000     
  0.500000000000000     
  0.500000000000000     
  0.500000000000000     
  0.500000000000000     
  0.500000000000000     
  0.500000000000000     
  0.500000000000000     
  0.500000000000000     
  0.500000000000000     
  0.500000000000000     
  0.500000000000000     
  0.500000000000000     
  0.500000000000000     
  0.500000000000000     
  0.500000000000000     
  0.500000000000000     
  0.500000000000000     
  0.500000000000000     
  0.500000000000000     
  0.500000000000000     
  0.500000000000000     
  0.500000000000000     
  0.500000000000000     
  0.500000000000000     
  0.500000000000000     
  0.500000000000000     
  0.500000000000000     
  0.500000000000000     
  0.500000000000000     
  0.500000000000000     
  0.500000000000000     
  0.500000000000000     
  0.500000000000000     
  0.500000000000000     
  0.500000000000000     
  0.500000000000000     
  0.500000000000000     
  0.500000000000000     
  0.500000000000000     
  0.500000000000000     
  0.500000000000000     
  0.500000000000000     
  0.500000000000000     
  0.500000000000000     
  0.500000000000000     
  0.500000000000000     
  0.500000000000000     
  0.500000000000000     