# vtk DataFile Version 5.1
Data.vtk
ASCII
DATASET UNSTRUCTURED_GRID
 
POINTS 2000 float
    0.23  -11.61   -0.38
  -10.28   -8.66    1.44
    5.74  -13.31    2.98
   -1.90  -12.24   -1.70
   -6.50  -11.88    7.48
   -2.57  -11.02   -9.45
   -6.93   -8.91   -6.32
   -0.10  -13.55   -8.50
  -10.80   -8.33   -3.22
   -5.73  -12.55   -0.39
   -4.30  -13.85   -4.82
   -7.19  -10.86   -9.49
    1.33  -12.22   -1.66
   -3.79  -12.18    0.70
    0.98  -14.42   -1.61
  -11.73   -6.69    0.85
   -8.18  -10.41    5.26
    4.79  -12.76    4.61
   -1.23  -11.33    5.88
    4.40  -13.82   -6.19
    1.95  -14.37   -1.36
    1.58  -11.52    4.86
   -8.64   -8.65   -9.09
    3.79  -11.73   -5.71
   -0.84  -12.20   -0.80
  -12.87   -6.61   -8.58
    2.09  -14.35    7.11
    0.49  -12.21    7.07
   -8.82  -11.50   -0.99
   -5.65  -13.35    9.50
    5.39  -12.87   -5.51
  -10.74   -9.73   -1.67
  -11.29   -6.90    7.79
   -8.09  -10.98   -2.47
    1.44  -13.98   -5.99
    1.25  -11.41    6.00
  -11.16   -9.20    9.46
   -3.41  -14.09    6.09
   -4.95  -13.62    1.00
   -3.74  -12.32    1.69
   -6.41   -9.15    0.85
    5.31  -13.49   -1.41
   -8.11  -12.00   -8.06
    0.16  -12.84    0.54
   -7.03  -11.49   -8.58
   -6.06   -9.09    1.81
   -3.80   -9.83    3.66
    1.36  -12.67   -4.46
  -10.19   -8.11    3.21
    2.56  -12.64   -5.91
   -2.34  -10.45   -5.08
   -3.74  -11.29    9.46
   -5.72  -12.33    7.91
   -6.38  -12.23    2.18
  -10.13  -10.37    4.80
   -9.02   -9.96    1.08
  -12.80   -5.83   -6.91
   -2.82  -14.22    2.83
   -0.88  -14.47    1.65
  -10.05   -7.97   -9.08
   -1.93  -14.37   -2.29
   -7.74  -12.26   -9.50
   -1.23  -11.94    7.05
    2.10  -12.00    2.95
   -2.32  -11.08    0.48
   -4.86  -12.83    0.39
    3.61  -13.13   -4.59
   -8.19  -11.02    3.57
    5.19  -12.65   -2.62
   -7.59  -10.11   -2.37
  -11.40   -8.96    8.09
    4.67  -11.96   -7.62
   -1.51  -11.13   -3.20
  -11.09   -9.34    6.18
  -12.49   -6.70    4.20
    3.32  -14.11   -8.56
  -11.35   -6.81    6.56
   -1.96   -9.99   -4.25
   -5.20  -12.66    2.56
  -13.25   -5.70   -2.12
   -1.38  -10.03    7.99
  -12.49   -7.17    6.02
    1.37  -13.43   -2.46
   -9.29   -7.17   -6.54
    2.14  -12.74   -7.65
   -4.96  -10.80   -4.89
    4.24  -13.87    1.99
   -9.85   -9.23   -5.74
   -6.91  -12.75    0.03
   -6.96   -9.58    5.43
   -5.31  -11.88    0.28
    0.66  -11.51   -7.70
   -6.91  -12.75   -3.61
   -8.25  -11.92    9.50
   -1.86  -10.39    2.11
  -10.00  -10.28   -3.39
   -1.83  -14.35    2.99
   -4.17  -13.01    5.81
   -2.49  -10.33   -1.15
   -6.98  -12.71   -1.73
    4.21  -12.07    1.75
  -10.03   -8.97   -3.23
   -9.58  -10.89    1.36
  -13.08   -6.26    7.28
   -3.46  -14.08    1.91
  -12.05   -5.35   -7.43
   -2.73  -10.64    3.99
   -7.84  -12.19   -3.69
    4.78  -13.24    8.85
   -0.02  -13.05    3.47
   -7.52  -12.38    7.73
   -3.38  -13.38   -2.51
   -5.91   -9.43   -2.38
   -4.01   -9.99   -6.82
    0.23  -11.30    2.22
   -5.84   -9.81   -7.64
   -0.81  -14.47    0.63
   -8.92  -11.42   -8.22
    5.28  -11.97    2.80
   -7.54  -11.21    9.45
   -2.15  -10.14    5.69
  -12.85   -6.70    9.41
    0.44  -12.93    8.73
  -10.68   -9.24    3.89
   -7.43  -12.45    0.83
  -12.75   -5.80   -4.28
   -1.24  -10.23   -2.87
    3.59  -14.05    3.65
    0.85  -11.35   -5.58
   -3.46   -9.25   -7.46
   -3.57  -12.50   -3.68
   -9.34  -11.07    3.34
  -10.00   -8.50   -0.30
  -10.86   -9.61    0.51
   -5.32  -11.89   -7.93
    2.47  -12.54    6.90
    4.17  -13.01   -5.63
    4.81  -13.05   -3.72
   -8.08   -8.73    8.42
    2.67  -11.98    1.53
   -8.98  -10.04   -2.67
    3.96  -13.95    4.64
   -4.20  -12.32   -6.77
   -7.43  -12.45    9.32
   -9.27  -11.12    6.09
    2.62  -13.24    9.50
   -2.82  -13.39    5.70
  -10.32   -6.31   -9.35
    0.26  -11.90   -4.65
    1.26  -12.23   -9.07
   -5.49  -11.19    4.61
   -8.65  -11.64   -1.97
   -8.64  -11.64    5.50
  -10.39  -10.07   -6.08
    4.32  -12.98   -6.75
    0.69  -14.48    1.70
   -0.15  -14.50    2.33
  -11.75   -6.38    5.70
   -4.62  -12.98    7.73
   -6.32   -8.77    3.60
   -7.55  -12.38   -7.19
  -10.09   -6.78    4.79
    2.48  -11.54   -7.26
   -4.41   -9.65    0.18
   -7.72   -9.96   -7.88
  -10.15  -10.36    2.00
    2.11  -13.62   -3.12
    2.88  -13.37   -7.40
   -8.65   -8.51   -1.78
   -8.23  -10.77   -7.57
   -0.68  -10.73    0.91
   -9.33   -9.94   -8.20
   -4.53  -10.54    7.73
   -9.80  -10.69   -6.59
   -1.63  -13.79    5.35
  -11.20   -9.21   -0.94
   -3.15  -11.67    8.55
   -8.35  -10.61    9.47
   -9.61  -10.79   -5.23
   -1.15  -13.08   -0.43
   -1.51  -14.42   -9.50
  -11.10   -6.93    1.72
   -3.99   -9.69   -0.74
   -8.52   -9.53   -8.62
   -3.85  -11.22    8.00
   -2.40  -11.04   -2.71
   -3.93  -13.96   -6.60
    4.65  -12.21   -5.99
   -3.96  -13.95    6.91
    4.52  -13.53   -2.02
   -4.20  -12.85   -2.74
    2.31  -12.93    4.42
   -2.12  -11.02    7.83
   -4.03  -11.95   -9.49
  -10.80   -8.12   -4.32
   -5.64   -9.53    5.00
  -13.13   -6.15   -9.50
    0.61  -11.38   -3.45
    4.30  -13.85   -0.33
   -8.16  -10.05   -1.55
   -7.64   -9.75    4.72
   -4.99   -8.66    8.12
   -1.35  -11.31   -4.19
   -1.21  -12.90   -1.41
    3.29  -13.62    2.19
   -0.05  -13.56   -9.50
   -7.20   -9.58   -4.42
   -9.82  -10.67    9.50
  -13.39   -5.13   -7.31
   -4.77  -11.99   -8.75
   -7.99  -10.89    6.69
   -0.82  -11.13   -6.60
  -10.02   -9.44    2.36
    2.29  -12.95   -3.90
  -13.35   -5.65   -8.67
  -10.04   -7.50    0.56
  -11.09   -8.05    0.65
    4.51  -13.22    5.48
   -3.47  -12.16   -7.44
   -0.49  -14.49   -5.83
  -11.76   -6.16    7.27
   -6.31  -10.28    5.13
   -6.43  -12.74   -8.58
   -4.07  -13.48   -3.50
   -1.86  -10.57    9.50
   -2.54   -9.97    9.08
   -4.13  -13.90   -9.50
   -1.99  -10.38   -2.02
   -5.73  -11.37    9.49
   -1.10  -11.82   -8.87
    4.35  -13.83   -4.14
   -2.69  -11.59    4.32
   -0.44  -13.06   -7.13
   -4.90  -12.08    7.39
   -1.36  -14.44   -8.43
    0.14  -14.50   -3.19
   -9.68  -10.75    0.37
  -11.96   -7.56    1.75
   -1.02  -11.84    2.77
   -3.34  -13.14   -7.58
   -4.08  -13.90    5.37
   -5.78   -8.65    2.66
   -4.74  -12.65   -9.50
   -2.41  -11.76   -8.62
  -10.39   -7.17    3.82
   -5.87  -13.26    1.14
   -5.68  -11.23   -9.49
  -12.99   -5.91   -0.48
   -9.58   -7.25    8.98
   -1.55  -11.52    8.51
   -1.46  -13.62   -2.95
   -9.95  -10.54   -9.50
   -8.59   -9.58   -7.54
    3.71  -13.37    7.31
   -4.56   -9.19    3.91
    0.02  -12.01    2.89
   -5.33   -8.51   -9.08
    5.20  -11.91    1.79
   -5.09  -13.58   -7.74
   -5.51  -11.58   -0.65
   -4.59   -9.03   -9.50
   -8.12   -8.97   -5.49
   -5.71  -13.33    7.84
  -12.89   -5.93    8.20
   -2.33  -14.31   -8.21
    2.63  -11.93   -2.64
    3.15  -11.58    0.74
  -13.54   -4.96    8.69
   -1.60  -12.53   -7.07
   -6.26  -10.77   -8.77
   -6.50  -11.92   -0.36
   -2.20  -13.40    1.04
    2.40  -13.72   -8.64
    1.72  -11.67   -2.97
   -6.27   -9.60   -6.63
    1.20  -13.45    9.50
   -3.64  -11.31    3.13
   -6.89   -8.68    4.98
   -8.65   -8.72   -8.05
    0.83  -14.45   -0.57
   -0.56  -13.66    6.38
    3.27  -12.21    5.41
   -5.00  -10.24   -4.06
   -6.52   -9.63    9.05
   -6.35  -12.94   -2.47
  -12.00   -7.14    5.10
   -0.50  -13.61   -1.46
   -4.93  -11.15    7.02
  -11.26   -6.88   -7.68
   -3.57   -9.51    1.14
    2.36  -13.58    2.56
  -13.38   -5.31    7.47
  -10.75   -9.66   -3.16
   -6.48  -10.39   -6.05
  -10.21   -8.42    7.84
   -6.89  -10.57    0.23
    2.66  -11.76   -5.45
   -8.31   -9.33    7.14
    2.76  -13.11    5.32
    4.83  -13.67   -5.29
    3.62  -13.12   -0.41
    2.89  -11.89    3.94
   -3.55  -12.96    3.07
  -12.55   -7.25   -1.66
   -4.98   -9.55   -0.63
    1.96  -12.10    6.16
   -9.37   -8.43    6.15
    3.20  -13.27   -6.38
   -7.24  -12.53   -2.69
  -10.57   -8.40    9.50
   -5.39  -10.94   -6.02
   -7.48  -10.24    6.12
  -10.48   -9.88   -0.72
   -5.23  -13.49   -1.44
   -6.23   -9.50   -5.59
   -3.55  -10.21   -3.34
   -4.22   -9.96   -9.50
  -12.88   -5.28   -1.25
    0.22  -14.50    6.22
   -7.95  -11.11   -8.47
    1.55  -11.94   -7.53
  -11.79   -8.21   -5.62
    0.35  -12.98   -2.49
    1.25  -12.93   -3.47
  -10.37  -10.13   -5.08
  -12.81   -6.80   -0.06
   -7.87  -12.18    5.08
   -6.18   -8.23    4.43
   -2.30  -13.50   -6.68
    2.56  -12.96    1.64
  -11.86   -8.28   -2.87
    1.26  -12.73   -0.43
    5.26  -13.51    1.85
   -1.99  -13.68   -3.80
    0.66  -13.91    8.72
   -3.43  -14.09   -3.97
   -9.78   -9.20    8.30
    1.33  -14.39    6.45
   -0.35  -14.50   -0.40
   -7.23   -9.72   -1.35
  -12.12   -7.92   -4.72
   -2.38  -10.17   -7.96
    0.65  -11.08    4.92
   -4.96  -12.74    6.55
   -1.08  -10.57   -9.07
   -4.38  -12.21   -7.85
  -12.87   -6.67    5.20
   -9.45  -10.91   -2.84
   -1.66  -12.81   -4.23
   -4.14  -13.90    8.62
   -2.36  -14.30   -5.07
   -4.83  -10.48   -8.79
   -1.40  -14.43   -5.34
   -7.18  -12.58    5.69
   -3.88  -11.93   -5.08
  -12.47   -7.04    7.09
   -4.13   -9.77   -2.37
    5.25  -12.18    6.95
  -10.91   -7.83    5.00
   -8.48  -11.76   -9.06
    3.96  -12.92    9.33
    1.29  -12.40    8.74
  -11.58   -6.64   -6.16
   -4.53  -11.05    8.70
    2.05  -11.14    3.52
   -6.05  -13.18    2.12
   -6.72  -12.85    7.38
    3.66  -12.74   -7.62
  -11.88   -7.23   -5.41
  -13.73   -4.00    8.91
   -0.73  -12.05   -3.92
   -9.21   -8.01   -8.52
   -4.84   -9.14   -2.66
   -4.75  -11.74    9.39
  -10.58   -9.92   -4.12
    0.31  -14.50    4.07
   -2.83   -9.66    4.14
  -12.91   -6.60   -2.37
   -7.29  -11.51   -4.69
  -10.64   -9.82   -9.48
    0.23  -10.92   -8.39
  -12.31   -7.55   -3.58
   -4.98  -12.76   -6.33
   -5.47  -10.70    5.48
   -6.88  -12.76   -9.47
   -9.74   -7.12   -9.50
  -12.21   -7.38   -2.59
   -2.24  -11.07    1.48
   -0.76  -14.48   -7.63
  -10.53   -7.07   -8.74
    1.93  -12.47    9.50
   -1.86  -10.06    4.06
  -12.71   -6.56   -7.58
   -5.35   -8.79    4.38
  -12.36   -7.57    9.49
   -1.49  -10.96    2.90
[...]
POINT_DATA 2000
SCALARS radius float
LOOKUP_TABLE default
  0.500000000000000     
  0.500000000000000     
  0.500000000000000     
  0.500000000000000     
  0.500000000000000     
  0.500000000000000     
  0.500000000000000     
  0.500000000000000     
  0.500000000000000     
  0.500000000000000     
  0.500000000000000     
  0.500000000000000     
  0.500000000000000     
  0.500000000000000     
  0.500000000000000     
  0.500000000000000     
  0.500000000000000     
  0.500000000000000     
  0.500000000000000     
  0.500000000000000     
  0.500000000000000     
  0.500000000000000     
  0.500000000000000     
  0.500000000000000     
  0.500000000000000     
  0.500000000000000     
  0.500000000000000     
  0.500000000000000     
  0.500000000000000     
  0.500000000000000     
  0.500000000000000     
  0.500000000000000     
  0.500000000000000     
  0.500000000000000     
  0.500000000000000     
  0.500000000000000     
  0.500000000000000     
  0.500000000000000     
  0.500000000000000     
  0.500000000000000     
  0.500000000000000     
  0.500000000000000     
  0.500000000000000     
  0.500000000000000     
  0.500000000000000     
  0.500000000000000     
  0.500000000000000     
  0.500000000000000     
  0.500000000000000     
  0.500000000000000     
  0.500000000000000     
  0.500000000000000     
  0.500000000000000     
  0.500000000000000     
  0.500000000000000     
  0.500000000000000     
  0.500000000000000     
  0.500000000000000     
  0.500000000000000     
  0.500000000000000     
  0.500000000000000     
  0.500000000000000     
  0.500000000000000     
  0.500000000000000     
  0.500000000000000     
  0.500000000000000     
  0.500000000000000     
  0.500000000000000     
  0.500000000000000     
  0.500000000000000     
  0.500000000000000     
  0.500000000000000     
  0.500000000000000     
  0.500000000000000     
  0.500000000000000     
  0.500000000000000     
  0.500000000000000     
  0.500000000000000     
  0.500000000000000     
  0.500000000000000     
  0.500000000000000     
  0.500000000000000     
  0.500000000000000     
  0.500000000000000     
  0.500000000000000     
  0.500000000000000     
  0.500000000000000     
  0.500000000000000     
  0.500000000000000     
  0.500000000000000     
  0.500000000000000     
  0.500000000000000     
  0.500000000000000     
  0.500000000000000     
  0.500000000000000     
  0.500000000000000     
  0.500000000000000     
  0.500000000000000     
  0.500000000000000     
  0.500000000000000     
  0.500000000000000     
  0.500000000000000     
  0.500000000000000     
  0.500000000000000     
  0.500000000000000     
  0.500000000000000     
  0.500000000000000     
  0.500000000000000     
  0.500000000000000     
  0.500000000000000     
  0.500000000000000     
  0.500000000000000     
  0.500000000000000     
  0.500000000000000     
  0.500000000000000     
  0.500000000000000     
  0.500000000000000     
  0.500000000000000     
  0.500000000000000     
  0.500000000000000     
  0.500000000000000     
  0.500000000000000     
  0.500000000000000     
  0.500000000000000     
  0.500000000000000     
  0.500000000000000     
  0.500000000000000     
  0.500000000000000     
  0.500000000000000     
  0.500000000000000     
  0.500000000000000     
  0.500000000000000     
  0.500000000000000     
  0.500000000000000     
  0.500000000000000     
  0.500000000000000     
  0.500000000000000     
  0.500000000000000     
  0.500000000000000     
  0.500000000000000     
  0.500000000000000     
  0.500000000000000     
  0.500000000000000     
  0.500000000000000     
  0.500000000000000     
  0.500000000000000     
  0.500000000000000     
  0.500000000000000     
  0.500000000000000     
  0.500000000000000     
  0.500000000000000     
  0.500000000000000     
  0.500000000000000     
  0.500000000000000     
  0.500000000000000     
  0.500000000000000     
  0.500000000000000     
  0.500000000000000     
  0.500000000000000     
  0.500000000000000     
  0.500000000000000     
  0.500000000000000     
  0.500000000000000     
  0.500000000000000     
  0.500000000000000     
  0.500000000000000     
  0.500000000000000     
  0.500000000000000     
  0.500000000000000     
  0.500000000000000     
  0.500000000000000     
  0.500000000000000     
  0.500000000000000     
  0.500000000000000     
  0.500000000000000     
  0.500000000000000     
  0.500000000000000     
  0.500000000000000     
  0.500000000000000     
  0.500000000000000     
  0.500000000000000     
  0.500000000000000     
  0.500000000000000     
  0.500000000000000     
  0.500000000000000     
  0.500000000000000     
  0.500000000000000     
  0.500000000000000     
  0.500000000000000     
  0.500000000000000     
  0.500000000000000     
  0.500000000000000     
  0.500000000000000     
  0.500000000000000     
  0.500000000000000     
  0.500000000000000     
  0.500000000000000     
  0.500000000000000     
  0.500000000000000     
  0.500000000000000     
  0.500000000000000     
  0.500000000000000     
  0.500000000000000     
  0.500000000000000     
  0.500000000000000     
  0.500000000000000     
  0.500000000000000     
  0.500000000000000     
  0.500000000000000     
  0.500000000000000     
  0.500000000000000     
  0.500000000000000     
  0.500000000000000     
  0.500000000000000     
  0.500000000000000     
  0.500000000000000     
  0.500000000000000     
  0.500000000000000     
  0.500000000000000     
  0.500000000000000     
  0.500000000000000     
  0.500000000000000     
  0.500000000000000     
  0.500000000000000     
  0.500000000000000     
  0.500000000000000     
  0.500000000000000     
  0.500000000000000     
  0.500000000000000     
  0.500000000000000     
  0.500000000000000     
  0.500000000000000     
  0.500000000000000     
  0.500000000000000     
  0.500000000000000     
  0.500000000000000     
  0.500000000000000     
  0.500000000000000     
  0.500000000000000     
  0.500000000000000     
  0.500000000000000     
  0.500000000000000     
  0.500000000000000     
  0.500000000000000     
  0.500000000000000     
  0.500000000000000     
  0.500000000000000     
  0.500000000000000     
  0.500000000000000     
  0.500000000000000     
  0.500000000000000     
  0.500000000000000     
  0.500000000000000     
  0.500000000000000     
  0.500000000000000     
  0.500000000000000     
  0.500000000000000     
  0.500000000000000     
  0.500000000000000     
  0.500000000000000     
  0.500000000000000     
  0.500000000000000     
  0.500000000000000     
  0.500000000000000     
  0.500000000000000     
  0.500000000000000     
  0.500000000000000     
  0.500000000000000     
  0.500000000000000     
  0.500000000000000     
  0.500000000000000     
  0.500000000000000     
  0.500000000000000     
  0.500000000000000     
  0.500000000000000     
  0.500000000000000     
  0.500000000000000     
  0.500000000000000     
  0.500000000000000     
  0.500000000000000     
  0.500000000000000     
  0.500000000000000     
  0.500000000000000     
  0.500000000000000     
  0.500000000000000     
  0.500000000000000     
  0.500000000000000     
  0.500000000000000     
  0.500000000000000     
  0.500000000000000     
  0.500000000000000     
  0.500000000000000     
  0.500000000000000     
  0.500000000000000     
  0.500000000000000     
  0.500000000000000     
  0.500000000000000     
  0.500000000000000     
  0.500000000000000     
  0.500000000000000     
  0.500000000000000     
  0.500000000000000     
  0.500000000000000     
  0.500000000000000     
  0.500000000000000     
  0.500000000000000     
  0.500000000000000     
  0.500000000000000     
  0.500000000000000     
  0.500000000000000     
  0.500000000000000     
  0.500000000000000     
  0.500000000000000     
  0.500000000000000     
  0.500000000000000     
  0.500000000000000     
  0.500000000000000     
  0.500000000000000     
  0.500000000000000     
  0.500000000000000     
  0.500000000000000     
  0.500000000000000     
  0.500000000000000     
  0.500000000000000     
  0.500000000000000     
  0.500000000000000     
  0.500000000000000     
  0.500000000000000     
  0.500000000000000     
  0.500000000000000     
  0.500000000000000     
  0.500000000000000     
  0.500000000000000     
  0.500000000000000     
  0.500000000000000     
  0.500000000000000     
  0.500000000000000     
  0.500000000000000     
  0.500000000000000     
  0.500000000000000     
  0.500000000000000     
  0.500000000000000     
  0.500000000000000     
  0.500000000000000     
  0.500000000000000     
  0.500000000000000     
  0.500000000000000     
  0.500000000000000     
  0.500000000000000     
  0.500000000000000     
  0.500000000000000     
  0.500000000000000     
  0.500000000000000     
  0.500000000000000     
  0.500000000000000     
  0.500000000000000     
  0.500000000000000     
  0.500000000000000     
  0.500000000000000     
  0.500000000000000     
  0.500000000000000     
  0.500000000000000     
  0.500000000000000     
  0.500000000000000     
  0.500000000000000     
  0.500000000000000     
  0.500000000000000     
  0.500000000000000     
  0.500000000000000     
  0.500000000000000     
  0.500000000000000     
  0.500000000000000     
  0.500000000000000     
  0.500000000000000     
  0.500000000000000     
  0.500000000000000     
  0.500000000000000     
  0.500000000000000     
  0.500000000000000     
  0.500000000000000     
  0.500000000000000     
  0.500000000000000     
  0.500000000000000     
  0.500000000000000     
  0.500000000000000     
  0.500000000000000     
  0.500000000000000     
  0.500000000000000     
  0.500000000000000     
  0.500000000000000     
  0.500000000000000     
  0.500000000000000     
  0.500000000000000     
  0.500000000000000     
  0.500000000000000     
  0.500000000000000     
  0.500000000000000     
  0.500000000000000     
  0.500000000000000     
  0.500000000000000     
  0.500000000000000     
  0.500000000000000     
  0.500000000000000     
  0.500000000000000     
  0.500000000000000     
  0.500000000000000     
  0.500000000000000     
  0.500000000000000     
  0.500000000000000     
  0.500000000000000     
  0.500000000000000     
  0.500000000000000     
  0.500000000000000     
  0.500000000000000     
  0.500000000000000     
  0.500000000000000     
  0.500000000000000     
  0.500000000000000     
  0.500000000000000     
  0.500000000000000     
  0.500000000000000     
  0.500000000000000     
  0.500000000000000     
  0.500000000000000     
  0.500000000000000     
  0.500000000000000     
  0.500000000000000     
  0.500000000000000     
  0.500000000000000     
  0.500000000000000     
  0.500000000000000     
  0.500000000000000     
  0.500000000000000     
  0.500000000000000     
  0.500000000000000     
  0.500000000000000     
  0.500000000000000     
  0.500000000000000     
  0.500000000000000     
  0.500000000000000     
  0.500000000000000     
  0.500000000000000     
  0.500000000000000     
  0.500000000000000     
  0.500000000000000     
  0.500000000000000     
  0.500000000000000     
  0.500000000000000     
  0.500000000000000     
  0.500000000000000     
  0.500000000000000     
  0.500000000000000     
  0.500000000000000     
  0.500000000000000     
  0.500000000000000     
  0.500000000000000     
  0.500000000000000     
  0.500000000000000     
  0.500000000000000     
  0.500000000000000     
  0.500000000000000     
  0.500000000000000     
  0.500000000000000     
  0.500000000000000     
  0.500000000000000     
  0.500000000000000     
  0.500000000000000     
  0.500000000000000     
  0.500000000000000     
  0.500000000000000     
  0.500000000000000     
  0.500000000000000     
  0.500000000000000     
  0.500000000000000     
  0.500000000000000     
  0.500000000000000     
  0.500000000000000     
  0.500000000000000     
  0.500000000000000     
  0.500000000000000     
  0.500000000000000     
  0.500000000000000     
  0.500000000000000     
  0.500000000000000     
  0.500000000000000     
  0.500000000000000     
  0.500000000000000     
  0.500000000000000     
  0.500000000000000     
  0.500000000000000     
  0.500000000000000     
  0.500000000000000     
  0.500000000000000     
  0.500000000000000     
  0.500000000000000     
  0.500000000000000     
  0.500000000000000     
  0.500000000000000     
  0.500000000000000     
  0.500000000000000     
  0.500000000000000     
  0.500000000000000     
  0.500000000000000     
  0.500000000000000     
  0.500000000000000     
  0.500000000000000     
  0.500000000000000     
  0.500000000000000     
  0.500000000000000     
  0.500000000000000     
  0.500000000000000     
  0.500000000000000     
  0.500000000000000     
  0.500000000000000     
  0.500000000000000     
  0.500000000000000     
  0.500000000000000     
  0.500000000000000     
  0.500000000000000     
  0.500000000000000     
  0.500000000000000     
  0.500000000000000     
  0.500000000000000     
  0.500000000000000     
  0.500000000000000     
  0.500000000000000     
  0.500000000000000     
  0.500000000000000     
  0.500000000000000     
  0.500000000000000     
  0.500000000000000     
  0.500000000000000     
  0.500000000000000     
  0.500000000000000     
  0.500000000000000     
  0.500000000000000     
  0.500000000000000     
  0.500000000000000     
  0.500000000000000     
  0.500000000000000     
  0.500000000000000     
  0.500000000000000     
  0.500000000000000     
  0.500000000000000     
  0.500000000000000     
  0.500000000000000     
  0.500000000000000     
  0.500000000000000     
  0.500000000000000     
  0.500000000000000     
  0.500000000000000     
  0.500000000000000     
  0.500000000000000     
  0.500000000000000     
  0.500000000000000     
  0.500000000000000     
  0.500000000000000     
  0.500000000000000     
  0.500000000000000     
  0.500000000000000     
  0.500000000000000     
  0.500000000000000     
  0.500000000000000     
  0.500000000000000     
  0.500000000000000     
  0.500000000000000     
  0.500000000000000     
  0.500000000000000     
  0.500000000000000     
  0.500000000000000     
  0.500000000000000     
  0.500000000000000     
  0.500000000000000     
  0.500000000000000     
  0.500000000000000     
  0.500000000000000     
  0.500000000000000     
  0.500000000000000     
  0.500000000000000     
  0.500000000000000     
  0.500000000000000     
  0.500000000000000     
  0.500000000000000     
  0.500000000000000     
  0.500000000000000     
  0.500000000000000     
  0.500000000000000     
  0.500000000000000     
  0.500000000000000     
  0.500000000000000     
  0.500000000000000     
  0.500000000000000     
  0.500000000000000     
  0.500000000000000     
  0.500000000000000     
  0.500000000000000     
  0.500000000000000     
  0.500000000000000     
  0.500000000000000     
  0.500000000000000     
  0.500000000000000     
  0.500000000000000     
  0.500000000000000     
  0.500000000000000     
  0.500000000000000     
  0.500000000000000     
  0.500000000000000     
  0.500000000000000     
  0.500000000000000     
  0.500000000000000     
  0.500000000000000     
  0.500000000000000     
  0.500000000000000     
  0.500000000000000     
  0.500000000000000     
  0.500000000000000     
  0.500000000000000     
  0.500000000000000     
  0.500000000000000     
  0.500000000000000     
  0.500000000000000     
  0.500000000000000     
  0.500000000000000     
  0.500000000000000     
  0.500000000000000     
  0.500000000000000     
  0.500000000000000     
  0.500000000000000     
  0.500000000000000     
  0.500000000000000     
  0.500000000000000     
  0.500000000000000     
  0.500000000000000     
  0.500000000000000     
  0.500000000000000     
  0.500000000000000     
  0.500000000000000     
  0.500000000000000     
  0.500000000000000     
  0.500000000000000     
  0.500000000000000     
  0.500000000000000     
  0.500000000000000     
  0.500000000000000     
  0.500000000000000     
  0.500000000000000     
  0.500000000000000     
  0.500000000000000     
  0.500000000000000     
  0.500000000000000     
  0.500000000000000     
  0.500000000000000     
  0.500000000000000     
  0.500000000000000     
  0.500000000000000     
  0.500000000000000     
  0.500000000000000     
  0.500000000000000     
  0.500000000000000     
  0.500000000000000     
  0.500000000000000     
  0.500000000000000     
  0.500000000000000     
  0.500000000000000     
  0.500000000000000     
  0.500000000000000     
  0.500000000000000     
  0.500000000000000     
  0.500000000000000     
  0.500000000000000     
  0.500000000000000     
  0.500000000000000     
  0.500000000000000     
  0.500000000000000     
  0.500000000000000     
  0.500000000000000     
  0.500000000000000     
  0.500000000000000     
  0.500000000000000     
  0.500000000000000     
  0.500000000000000     
  0.500000000000000     
  0.500000000000000     
  0.500000000000000     
  0.500000000000000     
  0.500000000000000     
  0.500000000000000     
  0.500000000000000     
  0.500000000000000     
  0.500000000000000     
  0.500000000000000     
  0.500000000000000     
  0.500000000000000     
  0.500000000000000     
  0.500000000000000     
  0.500000000000000     
  0.500000000000000     
  0.500000000000000     
  0.500000000000000     
  0.500000000000000     
  0.500000000000000     
  0.500000000000000     
  0.500000000000000     
  0.500000000000000     
  0.500000000000000     
  0.500000000000000     
  0.500000000000000     
  0.500000000000000     
  0.500000000000000     
  0.500000000000000     
  0.500000000000000     
  0.500000000000000     
  0.500000000000000     
  0.500000000000000     
  0.500000000000000     
  0.500000000000000     
  0.500000000000000     
  0.500000000000000     
  0.500000000000000     
  0.500000000000000     
  0.500000000000000     
  0.500000000000000     
  0.500000000000000     
  0.500000000000000     
  0.500000000000000     
  0.500000000000000     
  0.500000000000000     
  0.500000000000000     
  0.500000000000000     
  0.500000000000000     
  0.500000000000000     
  0.500000000000000     
  0.500000000000000     
  0.500000000000000     
  0.500000000000000     
  0.500000000000000     
  0.500000000000000     
  0.500000000000000     
  0.500000000000000     
  0.500000000000000     
  0.500000000000000     
  0.500000000000000     
  0.500000000000000     
  0.500000000000000     
  0.500000000000000     
  0.500000000000000     
  0.500000000000000     
  0.500000000000000     
  0.500000000000000     
  0.500000000000000     
  0.500000000000000     
  0.500000000000000     
  0.500000000000000     
  0.500000000000000     
  0.500000000000000     
  0.500000000000000     
  0.500000000000000     
  0.500000000000000     
  0.500000000000000     
  0.500000000000000     
  0.500000000000000     
  0.500000000000000     
  0.500000000000000     
  0.500000000000000     
  0.500000000000000     
  0.500000000000000     
  0.500000000000000     
  0.500000000000000     
  0.500000000000000     
  0.500000000000000     
  0.500000000000000     
  0.500000000000000     
  0.500000000000000     
  0.500000000000000     
  0.500000000000000     
  0.500000000000000     
  0.500000000000000     
  0.500000000000000     
  0.500000000000000     
  0.500000000000000     
  0.500000000000000     
  0.500000000000000     
  0.500000000000000     
  0.500000000000000     
  0.500000000000000     
  0.500000000000000     
  0.500000000000000     
  0.500000000000000     
  0.500000000000000     
  0.500000000000000     
  0.500000000000000     
  0.500000000000000     
  0.500000000000000     
  0.500000000000000     
  0.500000000000000     
  0.500000000000000     
  0.500000000000000     