# vtk DataFile Version 5.1
Data.vtk
ASCII
DATASET UNSTRUCTURED_GRID
 
POINTS 2000 float
   -9.21   -9.62   -0.79
   -4.61  -13.75    1.92
   -0.25  -11.23    1.25
   -2.10  -10.34   -0.68
   -6.76  -12.03    8.60
  -11.65   -6.24   -8.20
  -12.95   -4.66   -6.21
    0.08  -12.20   -8.67
    2.52  -13.50   -8.07
   -4.21  -12.11   -0.37
   -2.67  -14.25   -6.46
   -4.27  -12.93   -7.54
  -12.54   -7.29   -2.70
   -1.64  -12.86    4.98
    5.19  -13.54    0.04
  -11.24   -9.11    4.45
   -0.25  -14.50    6.61
   -8.27   -8.21    5.11
   -4.01   -9.81    5.78
    4.85  -13.08   -9.50
    5.05  -11.76    0.24
   -4.28   -9.53    0.90
   -2.34  -10.70   -8.66
    3.90  -13.96   -8.55
   -6.01  -11.40   -2.04
    2.06  -14.35    0.84
   -0.50  -13.68    7.12
   -0.92  -11.86    8.42
   -0.42  -14.49   -6.13
   -9.77   -9.21    9.49
    0.43  -12.06   -5.70
   -7.84  -12.18    1.00
   -7.56   -8.20    4.41
   -1.88  -13.63   -2.89
    5.52  -12.63   -4.75
   -2.51  -10.06    5.60
   -9.17  -11.19    8.65
    2.40  -12.80    5.73
    1.53  -14.42    1.82
   -1.99  -13.53    3.24
   -9.92   -8.31   -2.16
    3.27  -12.40   -1.45
   -1.39  -12.95   -6.29
   -5.53  -11.68    0.65
   -5.11  -12.90   -8.70
  -10.65   -8.25    4.24
   -4.05   -9.17    3.89
    1.82  -12.77   -4.37
    0.23  -14.50    0.09
    5.87  -13.26   -6.26
   -0.89  -10.58   -2.66
    0.05  -11.68    8.70
  -12.74   -6.83    9.50
   -0.24  -13.62    2.98
   -7.82  -12.21    6.58
    0.27  -13.61   -1.42
  -10.28  -10.09   -7.51
    1.53  -13.83    4.59
    5.30  -13.49    1.14
   -6.85   -9.89   -8.56
    0.93  -14.44   -2.62
   -6.71  -10.27   -9.50
   -7.54   -8.43    7.08
    0.21  -10.55   -1.90
  -11.14   -7.86    0.52
    2.72  -12.88    3.46
   -1.85  -10.18   -7.17
   -8.08  -12.04    4.79
   -4.55   -9.45   -6.47
   -5.70  -12.74   -2.40
    1.46  -14.43    8.08
   -2.44  -13.55   -9.21
   -6.89   -8.83   -5.66
   -6.64  -12.89    5.42
  -11.54   -4.80    6.71
   -5.60  -13.38   -9.50
  -12.78   -6.01    6.24
   -4.09   -9.21   -5.08
   -1.91  -13.50    1.94
   -9.61  -10.84    0.59
   -2.81  -10.68    8.38
  -13.06   -5.62    4.28
   -5.91  -10.00   -4.14
  -10.28   -6.54   -8.70
    1.52  -11.13   -6.70
   -4.71  -10.73   -7.55
    4.31  -13.84    4.09
  -12.16   -7.71   -8.32
   -1.63  -14.41    2.26
   -3.90  -12.12    6.73
   -6.99  -12.70   -0.48
    4.21  -13.87   -9.50
  -13.20   -6.01   -8.36
   -8.39  -11.82    9.50
   -4.44   -9.18    6.90
   -5.03  -12.66   -3.55
    4.77  -12.86    5.57
   -0.18  -13.57    5.22
   -5.09   -9.45   -4.60
    4.31  -13.84   -2.78
   -2.76   -9.75    1.92
   -9.05  -11.33   -8.52
   -3.53  -14.06    2.58
  -11.31   -9.06    8.53
    3.97  -13.29    2.68
  -13.62   -4.19   -8.14
   -3.95   -9.59    1.97
  -10.40  -10.06   -8.51
    1.46  -11.79    7.22
    1.41  -12.11    2.89
   -7.56  -12.37    9.50
    1.55  -12.21   -1.25
  -10.59   -8.09   -1.31
  -10.45   -8.49   -6.14
   -7.98   -9.15    2.88
  -10.08   -9.03   -7.79
    6.55  -12.94    0.62
   -3.41  -12.99   -6.66
    2.02  -11.26    6.54
  -13.21   -5.99    8.44
   -4.73   -9.94    4.25
   -9.13   -8.45    9.50
   -4.27  -12.85    9.50
   -6.23  -13.09    4.53
   -9.68  -10.80   -2.00
   -9.04  -11.34   -3.84
   -3.13   -9.78   -4.07
    5.45  -13.44    8.05
   -1.91  -11.17   -7.76
   -0.47  -10.84   -7.45
   -2.42  -11.99   -3.42
    2.65  -14.26    6.54
   -7.15  -12.60   -3.03
   -7.72  -12.25   -0.99
   -0.18  -13.24   -8.64
   -2.21  -10.36    7.13
    3.46  -12.36   -7.59
   -3.93  -10.84   -4.75
   -6.34   -9.25    8.07
   -5.96   -9.23   -0.07
  -10.02  -10.45   -1.13
    3.97  -11.92    0.55
   -0.38  -13.52   -7.70
  -10.88   -9.51    7.73
   -0.97  -13.56    6.24
    5.67  -12.31    7.24
    1.57  -12.69    7.63
   -5.56   -9.05   -7.49
   -2.15  -10.95   -6.56
   -8.00   -9.70   -8.45
   -8.18  -10.80    6.84
   -1.87  -14.38   -0.61
    3.21  -13.54    6.08
   -3.01  -14.18   -8.26
    4.25  -13.55   -7.39
    0.18  -12.77    1.61
   -1.59  -12.51    1.72
  -11.67   -5.79    6.85
   -3.41  -13.36    9.48
   -6.63   -9.07    3.54
  -11.60   -8.64   -9.50
   -9.16   -7.65    8.28
   -3.13  -10.32   -5.23
   -8.77   -9.65    2.52
  -10.40   -8.42   -8.52
    0.82  -14.48    0.90
    4.52  -13.12   -1.25
    2.39  -11.53   -7.94
  -10.63   -9.58   -3.07
   -1.90  -12.74   -8.65
   -7.11   -9.41    1.18
   -0.30  -12.45   -6.26
   -7.78   -9.12    6.40
   -6.04  -12.19   -7.43
    1.66  -12.18    5.47
   -8.95  -11.40    3.12
   -0.51  -11.86    9.50
  -10.44   -8.49    9.35
   -0.38  -14.49   -7.22
   -4.50  -11.17   -0.53
    0.61  -14.48   -6.08
  -11.36   -8.61    3.60
  -10.53   -7.52    1.25
   -3.69  -12.15   -7.20
   -7.11  -10.31    9.40
  -10.93   -7.30   -3.59
    4.53  -12.89   -3.27
   -1.60  -10.53   -4.20
   -0.11  -14.50    5.59
   -0.32  -11.32   -2.28
    2.38  -12.76   -1.18
   -4.19  -10.54    5.00
    3.62  -14.03    9.50
   -2.65  -11.50   -9.50
  -10.98   -7.11   -4.91
   -7.74   -8.22    5.96
   -8.30  -10.37   -7.63
   -5.27   -9.43   -3.30
    1.46  -11.66   -3.43
   -2.32  -13.41    0.52
   -4.08  -12.30    5.77
   -2.74  -10.96    6.05
   -7.73   -9.52   -7.50
   -1.76  -11.09   -2.09
   -9.85   -8.05    4.89
   -1.25  -12.03   -7.75
  -12.04   -7.72   -5.68
   -9.72  -10.76    9.50
  -10.59   -8.53   -9.50
   -3.82  -13.99   -8.82
   -4.26  -13.07    6.73
    1.31  -12.10   -7.82
   -9.32  -11.09    6.82
   -5.22   -9.63   -5.59
  -12.25   -6.76   -7.33
    0.08  -14.50    3.35
   -4.03  -13.92    3.78
    0.74  -10.97    7.68
   -4.52  -12.72   -9.50
    2.08  -14.35   -7.44
   -3.24  -12.66    5.15
  -13.12   -6.18    5.27
    2.99  -14.19   -5.84
    6.14  -13.13   -4.11
    2.32  -13.37    7.54
    4.65  -12.88    8.28
    1.40  -13.60   -8.12
   -7.96   -9.23   -2.22
   -2.32  -13.37    9.48
   -2.64  -12.41   -8.06
    4.88  -12.53   -2.05
   -9.05   -7.94    2.77
    1.33  -11.93   -6.13
   -3.02  -12.35    7.14
   -3.28  -13.08   -7.64
    1.63  -14.41   -1.33
    5.46  -13.43   -1.39
   -7.46  -11.44    1.85
   -6.01  -12.24    2.98
    1.19  -12.67   -6.78
   -1.53  -14.42    3.27
   -2.32  -10.36    3.39
   -6.57  -11.86   -9.50
   -1.94  -11.73   -8.59
  -12.03   -6.64    6.47
    6.17  -13.12    2.68
  -11.26   -7.80   -9.09
   -8.59  -11.67    4.02
   -5.16  -10.88    9.42
   -0.87  -12.70    9.07
    0.48  -11.63   -2.87
   -6.74  -11.99   -8.52
   -5.75  -11.99   -8.61
    1.10  -11.40    5.76
  -12.13   -5.92    2.99
   -2.50  -10.30    0.99
   -1.38  -10.86   -8.89
   -2.91  -10.94    5.03
   -0.57  -13.52   -6.28
   -5.21  -13.53   -2.77
   -3.51  -10.42   -7.11
   -3.78  -13.22   -5.76
   -6.04  -13.18    6.28
  -13.55   -5.08    8.10
   -1.43  -14.43   -7.53
   -4.50  -10.48   -2.46
   -1.16  -10.85    1.75
   -5.86  -13.26    9.50
    0.99  -12.76   -8.50
  -10.10   -9.25   -9.01
   -0.24  -14.50   -1.04
    1.26  -11.35    1.34
   -5.47  -12.38   -9.49
   -6.29   -9.12   -6.45
   -9.15  -10.20   -7.14
   -1.38  -12.73    8.21
   -9.03  -10.19    7.15
   -9.02   -9.26    4.45
  -13.31   -5.27   -6.92
    3.47  -12.50    2.32
   -0.20  -11.81    5.03
    2.60  -11.83    5.56
   -9.41   -8.29   -4.59
   -0.15  -10.94    9.40
    2.51  -13.61   -1.68
  -13.96   -3.57    9.50
   -0.28  -12.05   -1.60
  -11.10   -7.05    6.84
  -13.23   -4.08   -7.13
   -6.05   -9.43    2.81
    5.33  -12.24    1.89
  -10.36   -6.70    5.94
    2.02  -13.53   -3.00
   -7.24  -10.76   -6.20
   -2.74   -9.72    9.40
    1.78  -14.38   -4.85
   -4.74   -8.72   -5.69
   -5.44  -11.80    6.48
   -5.92  -10.63    5.83
    2.73  -12.85   -4.79
   -6.84   -9.87   -1.13
   -2.46   -9.13    4.37
   -0.35  -12.94    3.97
   -5.38  -13.46   -7.89
   -9.73   -8.34   -0.43
    4.00  -12.17    7.99
   -6.80  -11.77    6.59
    5.34  -13.48   -3.22
   -8.27  -11.83   -3.35
   -9.42   -7.11    7.45
  -12.37   -5.58   -4.53
   -3.14  -12.48    6.14
   -8.03  -12.03   -0.06
   -3.80  -13.84   -3.13
   -3.68   -9.16   -8.86
   -4.53   -8.89   -7.37
   -3.49   -9.91   -9.50
   -3.08  -13.15   -0.17
    4.57  -13.76    7.38
   -2.57  -13.41   -7.01
   -0.61  -11.92   -9.46
  -12.73   -4.18   -5.23
    3.27  -11.56   -2.97
    5.49  -12.40   -1.00
   -7.01  -12.61   -1.76
   -6.11  -13.15    2.58
   -4.51  -13.77    2.92
   -1.11  -10.72    9.26
    1.33  -12.72   -5.24
   -5.51  -12.30    4.91
  -10.12  -10.00   -0.10
   -6.35   -9.87   -2.01
    5.25  -12.76    2.86
    4.62  -12.76   -5.31
    3.81  -13.44    8.71
   -0.56  -14.49   -3.92
  -11.80   -6.49    9.48
   -2.49  -14.29    8.15
    4.46  -12.37    2.38
  -10.49  -10.01   -1.90
   -9.66  -10.71   -4.38
    1.98  -12.69   -8.28
   -1.14  -10.69    4.60
   -0.23  -12.75    6.82
   -4.60  -10.50   -9.50
   -3.43  -12.20   -8.77
  -12.34   -7.53    6.13
   -9.25  -11.17   -5.80
   -7.69  -10.98   -7.13
   -1.37  -14.17    7.08
    3.25  -14.13   -7.79
   -4.95  -11.53   -9.37
    3.31  -14.12   -2.55
    1.01  -14.46    5.21
   -5.12  -11.19   -4.79
  -11.90   -6.33    5.51
   -9.02   -8.07   -7.79
    3.72  -13.97    7.86
   -7.89  -11.14    7.74
   -1.44  -13.56   -8.96
    0.79  -14.48    8.84
    2.25  -12.57    9.08
  -11.38   -8.21   -6.77
   -8.18   -8.71    8.35
    0.40  -11.03    2.03
   -5.02  -13.60   -0.82
   -2.02  -14.36    9.03
    4.72  -13.71   -4.10
  -11.95   -7.97   -3.22
   -9.60   -9.89    7.94
   -8.25   -9.05   -6.30
   -3.67   -8.95   -7.88
   -7.61   -9.10   -4.82
   -5.21  -12.50    9.50
   -9.61  -10.84   -9.27
    5.33  -13.48    5.03
   -6.62   -8.49    9.47
   -9.98  -10.52    4.24
    1.44  -12.82   -3.39
   -7.47   -8.52   -7.27
    4.24  -12.32   -6.95
   -2.37  -14.31   -5.26
    3.34  -13.44   -4.26
   -5.60  -11.51    7.42
   -2.29  -13.50   -8.04
   -6.66   -9.27   -9.45
   -9.19  -11.07   -1.17
   -7.10   -9.71    2.13
    1.18  -13.78   -5.63
   -5.34   -8.84   -2.49
   -2.98  -12.46    9.47
   -8.80   -7.72    6.96
  -10.42   -7.19   -9.49
   -9.57   -8.02    6.25
   -7.51   -9.93    8.51
   -4.26  -10.23    2.73
[...]
POINT_DATA 2000
SCALARS radius float
LOOKUP_TABLE default
  0.500000000000000     
  0.500000000000000     
  0.500000000000000     
  0.500000000000000     
  0.500000000000000     
  0.500000000000000     
  0.500000000000000     
  0.500000000000000     
  0.500000000000000     
  0.500000000000000     
  0.500000000000000     
  0.500000000000000     
  0.500000000000000     
  0.500000000000000     
  0.500000000000000     
  0.500000000000000     
  0.500000000000000     
  0.500000000000000     
  0.500000000000000     
  0.500000000000000     
  0.500000000000000     
  0.500000000000000     
  0.500000000000000     
  0.500000000000000     
  0.500000000000000     
  0.500000000000000     
  0.500000000000000     
  0.500000000000000     
  0.500000000000000     
  0.500000000000000     
  0.500000000000000     
  0.500000000000000     
  0.500000000000000     
  0.500000000000000     
  0.500000000000000     
  0.500000000000000     
  0.500000000000000     
  0.500000000000000     
  0.500000000000000     
  0.500000000000000     
  0.500000000000000     
  0.500000000000000     
  0.500000000000000     
  0.500000000000000     
  0.500000000000000     
  0.500000000000000     
  0.500000000000000     
  0.500000000000000     
  0.500000000000000     
  0.500000000000000     
  0.500000000000000     
  0.500000000000000     
  0.500000000000000     
  0.500000000000000     
  0.500000000000000     
  0.500000000000000     
  0.500000000000000     
  0.500000000000000     
  0.500000000000000     
  0.500000000000000     
  0.500000000000000     
  0.500000000000000     
  0.500000000000000     
  0.500000000000000     
  0.500000000000000     
  0.500000000000000     
  0.500000000000000     
  0.500000000000000     
  0.500000000000000     
  0.500000000000000     
  0.500000000000000     
  0.500000000000000     
  0.500000000000000     
  0.500000000000000     
  0.500000000000000     
  0.500000000000000     
  0.500000000000000     
  0.500000000000000     
  0.500000000000000     
  0.500000000000000     
  0.500000000000000     
  0.500000000000000     
  0.500000000000000     
  0.500000000000000     
  0.500000000000000     
  0.500000000000000     
  0.500000000000000     
  0.500000000000000     
  0.500000000000000     
  0.500000000000000     
  0.500000000000000     
  0.500000000000000     
  0.500000000000000     
  0.500000000000000     
  0.500000000000000     
  0.500000000000000     
  0.500000000000000     
  0.500000000000000     
  0.500000000000000     
  0.500000000000000     
  0.500000000000000     
  0.500000000000000     
  0.500000000000000     
  0.500000000000000     
  0.500000000000000     
  0.500000000000000     
  0.500000000000000     
  0.500000000000000     
  0.500000000000000     
  0.500000000000000     
  0.500000000000000     
  0.500000000000000     
  0.500000000000000     
  0.500000000000000     
  0.500000000000000     
  0.500000000000000     
  0.500000000000000     
  0.500000000000000     
  0.500000000000000     
  0.500000000000000     
  0.500000000000000     
  0.500000000000000     
  0.500000000000000     
  0.500000000000000     
  0.500000000000000     
  0.500000000000000     
  0.500000000000000     
  0.500000000000000     
  0.500000000000000     
  0.500000000000000     
  0.500000000000000     
  0.500000000000000     
  0.500000000000000     
  0.500000000000000     
  0.500000000000000     
  0.500000000000000     
  0.500000000000000     
  0.500000000000000     
  0.500000000000000     
  0.500000000000000     
  0.500000000000000     
  0.500000000000000     
  0.500000000000000     
  0.500000000000000     
  0.500000000000000     
  0.500000000000000     
  0.500000000000000     
  0.500000000000000     
  0.500000000000000     
  0.500000000000000     
  0.500000000000000     
  0.500000000000000     
  0.500000000000000     
  0.500000000000000     
  0.500000000000000     
  0.500000000000000     
  0.500000000000000     
  0.500000000000000     
  0.500000000000000     
  0.500000000000000     
  0.500000000000000     
  0.500000000000000     
  0.500000000000000     
  0.500000000000000     
  0.500000000000000     
  0.500000000000000     
  0.500000000000000     
  0.500000000000000     
  0.500000000000000     
  0.500000000000000     
  0.500000000000000     
  0.500000000000000     
  0.500000000000000     
  0.500000000000000     
  0.500000000000000     
  0.500000000000000     
  0.500000000000000     
  0.500000000000000     
  0.500000000000000     
  0.500000000000000     
  0.500000000000000     
  0.500000000000000     
  0.500000000000000     
  0.500000000000000     
  0.500000000000000     
  0.500000000000000     
  0.500000000000000     
  0.500000000000000     
  0.500000000000000     
  0.500000000000000     
  0.500000000000000     
  0.500000000000000     
  0.500000000000000     
  0.500000000000000     
  0.500000000000000     
  0.500000000000000     
  0.500000000000000     
  0.500000000000000     
  0.500000000000000     
  0.500000000000000     
  0.500000000000000     
  0.500000000000000     
  0.500000000000000     
  0.500000000000000     
  0.500000000000000     
  0.500000000000000     
  0.500000000000000     
  0.500000000000000     
  0.500000000000000     
  0.500000000000000     
  0.500000000000000     
  0.500000000000000     
  0.500000000000000     
  0.500000000000000     
  0.500000000000000     
  0.500000000000000     
  0.500000000000000     
  0.500000000000000     
  0.500000000000000     
  0.500000000000000     
  0.500000000000000     
  0.500000000000000     
  0.500000000000000     
  0.500000000000000     
  0.500000000000000     
  0.500000000000000     
  0.500000000000000     
  0.500000000000000     
  0.500000000000000     
  0.500000000000000     
  0.500000000000000     
  0.500000000000000     
  0.500000000000000     
  0.500000000000000     
  0.500000000000000     
  0.500000000000000     
  0.500000000000000     
  0.500000000000000     
  0.500000000000000     
  0.500000000000000     
  0.500000000000000     
  0.500000000000000     
  0.500000000000000     
  0.500000000000000     
  0.500000000000000     
  0.500000000000000     
  0.500000000000000     
  0.500000000000000     
  0.500000000000000     
  0.500000000000000     
  0.500000000000000     
  0.500000000000000     
  0.500000000000000     
  0.500000000000000     
  0.500000000000000     
  0.500000000000000     
  0.500000000000000     
  0.500000000000000     
  0.500000000000000     
  0.500000000000000     
  0.500000000000000     
  0.500000000000000     
  0.500000000000000     
  0.500000000000000     
  0.500000000000000     
  0.500000000000000     
  0.500000000000000     
  0.500000000000000     
  0.500000000000000     
  0.500000000000000     
  0.500000000000000     
  0.500000000000000     
  0.500000000000000     
  0.500000000000000     
  0.500000000000000     
  0.500000000000000     
  0.500000000000000     
  0.500000000000000     
  0.500000000000000     
  0.500000000000000     
  0.500000000000000     
  0.500000000000000     
  0.500000000000000     
  0.500000000000000     
  0.500000000000000     
  0.500000000000000     
  0.500000000000000     
  0.500000000000000     
  0.500000000000000     
  0.500000000000000     
  0.500000000000000     
  0.500000000000000     
  0.500000000000000     
  0.500000000000000     
  0.500000000000000     
  0.500000000000000     
  0.500000000000000     
  0.500000000000000     
  0.500000000000000     
  0.500000000000000     
  0.500000000000000     
  0.500000000000000     
  0.500000000000000     
  0.500000000000000     
  0.500000000000000     
  0.500000000000000     
  0.500000000000000     
  0.500000000000000     
  0.500000000000000     
  0.500000000000000     
  0.500000000000000     
  0.500000000000000     
  0.500000000000000     
  0.500000000000000     
  0.500000000000000     
  0.500000000000000     
  0.500000000000000     
  0.500000000000000     
  0.500000000000000     
  0.500000000000000     
  0.500000000000000     
  0.500000000000000     
  0.500000000000000     
  0.500000000000000     
  0.500000000000000     
  0.500000000000000     
  0.500000000000000     
  0.500000000000000     
  0.500000000000000     
  0.500000000000000     
  0.500000000000000     
  0.500000000000000     
  0.500000000000000     
  0.500000000000000     
  0.500000000000000     
  0.500000000000000     
  0.500000000000000     
  0.500000000000000     
  0.500000000000000     
  0.500000000000000     
  0.500000000000000     
  0.500000000000000     
  0.500000000000000     
  0.500000000000000     
  0.500000000000000     
  0.500000000000000     
  0.500000000000000     
  0.500000000000000     
  0.500000000000000     
  0.500000000000000     
  0.500000000000000     
  0.500000000000000     
  0.500000000000000     
  0.500000000000000     
  0.500000000000000     
  0.500000000000000     
  0.500000000000000     
  0.500000000000000     
  0.500000000000000     
  0.500000000000000     
  0.500000000000000     
  0.500000000000000     
  0.500000000000000     
  0.500000000000000     
  0.500000000000000     
  0.500000000000000     
  0.500000000000000     
  0.500000000000000     
  0.500000000000000     
  0.500000000000000     
  0.500000000000000     
  0.500000000000000     
  0.500000000000000     
  0.500000000000000     
  0.500000000000000     
  0.500000000000000     
  0.500000000000000     
  0.500000000000000     
  0.500000000000000     
  0.500000000000000     
  0.500000000000000     
  0.500000000000000     
  0.500000000000000     
  0.500000000000000     
  0.500000000000000     
  0.500000000000000     
  0.500000000000000     
  0.500000000000000     
  0.500000000000000     
  0.500000000000000     
  0.500000000000000     
  0.500000000000000     
  0.500000000000000     
  0.500000000000000     
  0.500000000000000     
  0.500000000000000     
  0.500000000000000     
  0.500000000000000     
  0.500000000000000     
  0.500000000000000     
  0.500000000000000     
  0.500000000000000     
  0.500000000000000     
  0.500000000000000     
  0.500000000000000     
  0.500000000000000     
  0.500000000000000     
  0.500000000000000     
  0.500000000000000     
  0.500000000000000     
  0.500000000000000     
  0.500000000000000     
  0.500000000000000     
  0.500000000000000     
  0.500000000000000     
  0.500000000000000     
  0.500000000000000     
  0.500000000000000     
  0.500000000000000     
  0.500000000000000     
  0.500000000000000     
  0.500000000000000     
  0.500000000000000     
  0.500000000000000     
  0.500000000000000     
  0.500000000000000     
  0.500000000000000     
  0.500000000000000     
  0.500000000000000     
  0.500000000000000     
  0.500000000000000     
  0.500000000000000     
  0.500000000000000     
  0.500000000000000     
  0.500000000000000     
  0.500000000000000     
  0.500000000000000     
  0.500000000000000     
  0.500000000000000     
  0.500000000000000     
  0.500000000000000     
  0.500000000000000     
  0.500000000000000     
  0.500000000000000     
  0.500000000000000     
  0.500000000000000     
  0.500000000000000     
  0.500000000000000     
  0.500000000000000     
  0.500000000000000     
  0.500000000000000     
  0.500000000000000     
  0.500000000000000     
  0.500000000000000     
  0.500000000000000     
  0.500000000000000     
  0.500000000000000     
  0.500000000000000     
  0.500000000000000     
  0.500000000000000     
  0.500000000000000     
  0.500000000000000     
  0.500000000000000     
  0.500000000000000     
  0.500000000000000     
  0.500000000000000     
  0.500000000000000     
  0.500000000000000     
  0.500000000000000     
  0.500000000000000     
  0.500000000000000     
  0.500000000000000     
  0.500000000000000     
  0.500000000000000     
  0.500000000000000     
  0.500000000000000     
  0.500000000000000     
  0.500000000000000     
  0.500000000000000     
  0.500000000000000     
  0.500000000000000     
  0.500000000000000     
  0.500000000000000     
  0.500000000000000     
  0.500000000000000     
  0.500000000000000     
  0.500000000000000     
  0.500000000000000     
  0.500000000000000     
  0.500000000000000     
  0.500000000000000     
  0.500000000000000     
  0.500000000000000     
  0.500000000000000     
  0.500000000000000     
  0.500000000000000     
  0.500000000000000     
  0.500000000000000     
  0.500000000000000     
  0.500000000000000     
  0.500000000000000     
  0.500000000000000     
  0.500000000000000     
  0.500000000000000     
  0.500000000000000     
  0.500000000000000     
  0.500000000000000     
  0.500000000000000     
  0.500000000000000     
  0.500000000000000     
  0.500000000000000     
  0.500000000000000     
  0.500000000000000     
  0.500000000000000     
  0.500000000000000     
  0.500000000000000     
  0.500000000000000     
  0.500000000000000     
  0.500000000000000     
  0.500000000000000     
  0.500000000000000     
  0.500000000000000     
  0.500000000000000     
  0.500000000000000     
  0.500000000000000     
  0.500000000000000     
  0.500000000000000     
  0.500000000000000     
  0.500000000000000     
  0.500000000000000     
  0.500000000000000     
  0.500000000000000     
  0.500000000000000     
  0.500000000000000     
  0.500000000000000     
  0.500000000000000     
  0.500000000000000     
  0.500000000000000     
  0.500000000000000     
  0.500000000000000     
  0.500000000000000     
  0.500000000000000     
  0.500000000000000     
  0.500000000000000     
  0.500000000000000     
  0.500000000000000     
  0.500000000000000     
  0.500000000000000     
  0.500000000000000     
  0.500000000000000     
  0.500000000000000     
  0.500000000000000     
  0.500000000000000     
  0.500000000000000     
  0.500000000000000     
  0.500000000000000     
  0.500000000000000     
  0.500000000000000     
  0.500000000000000     
  0.500000000000000     
  0.500000000000000     
  0.500000000000000     
  0.500000000000000     
  0.500000000000000     
  0.500000000000000     
  0.500000000000000     
  0.500000000000000     
  0.500000000000000     
  0.500000000000000     
  0.500000000000000     
  0.500000000000000     
  0.500000000000000     
  0.500000000000000     
  0.500000000000000     
  0.500000000000000     
  0.500000000000000     
  0.500000000000000     
  0.500000000000000     
  0.500000000000000     
  0.500000000000000     
  0.500000000000000     
  0.500000000000000     
  0.500000000000000     
  0.500000000000000     
  0.500000000000000     
  0.500000000000000     
  0.500000000000000     
  0.500000000000000     
  0.500000000000000     
  0.500000000000000     
  0.500000000000000     
  0.500000000000000     
  0.500000000000000     
  0.500000000000000     
  0.500000000000000     
  0.500000000000000     
  0.500000000000000     
  0.500000000000000     
  0.500000000000000     
  0.500000000000000     
  0.500000000000000     
  0.500000000000000     
  0.500000000000000     
  0.500000000000000     
  0.500000000000000     
  0.500000000000000     
  0.500000000000000     
  0.500000000000000     
  0.500000000000000     
  0.500000000000000     
  0.500000000000000     
  0.500000000000000     
  0.500000000000000     
  0.500000000000000     
  0.500000000000000     
  0.500000000000000     
  0.500000000000000     
  0.500000000000000     
  0.500000000000000     
  0.500000000000000     
  0.500000000000000     
  0.500000000000000     
  0.500000000000000     
  0.500000000000000     
  0.500000000000000     
  0.500000000000000     
  0.500000000000000     
  0.500000000000000     
  0.500000000000000     
  0.500000000000000     
  0.500000000000000     
  0.500000000000000     
  0.500000000000000     
  0.500000000000000     
  0.500000000000000     
  0.500000000000000     
  0.500000000000000     
  0.500000000000000     
  0.500000000000000     
  0.500000000000000     
  0.500000000000000     
  0.500000000000000     
  0.500000000000000     
  0.500000000000000     
  0.500000000000000     
  0.500000000000000     
  0.500000000000000     
  0.500000000000000     
  0.500000000000000     
  0.500000000000000     
  0.500000000000000     
  0.500000000000000     
  0.500000000000000     
  0.500000000000000     
  0.500000000000000     
  0.500000000000000     
  0.500000000000000     
  0.500000000000000     
  0.500000000000000     
  0.500000000000000     
  0.500000000000000     
  0.500000000000000     
  0.500000000000000     
  0.500000000000000     
  0.500000000000000     
  0.500000000000000     
  0.500000000000000     
  0.500000000000000     
  0.500000000000000     
  0.500000000000000     
  0.500000000000000     
  0.500000000000000     
  0.500000000000000     
  0.500000000000000     
  0.500000000000000     
  0.500000000000000     
  0.500000000000000     
  0.500000000000000     
  0.500000000000000     
  0.500000000000000     
  0.500000000000000     
  0.500000000000000     
  0.500000000000000     
  0.500000000000000     
  0.500000000000000     
  0.500000000000000     
  0.500000000000000     
  0.500000000000000     
  0.500000000000000     
  0.500000000000000     
  0.500000000000000     
  0.500000000000000     
  0.500000000000000     
  0.500000000000000     
  0.500000000000000     
  0.500000000000000     
  0.500000000000000     
  0.500000000000000     
  0.500000000000000     
  0.500000000000000     
  0.500000000000000     
  0.500000000000000     
  0.500000000000000     
  0.500000000000000     
  0.500000000000000     
  0.500000000000000     
  0.500000000000000     
  0.500000000000000     
  0.500000000000000     
  0.500000000000000     
  0.500000000000000     
  0.500000000000000     
  0.500000000000000     
  0.500000000000000     
  0.500000000000000     
  0.500000000000000     
  0.500000000000000     
  0.500000000000000     
  0.500000000000000     
  0.500000000000000     
  0.500000000000000     
  0.500000000000000     
  0.500000000000000     
  0.500000000000000     
  0.500000000000000     
  0.500000000000000     
  0.500000000000000     
  0.500000000000000     
  0.500000000000000     
  0.500000000000000     
  0.500000000000000     
  0.500000000000000     
  0.500000000000000     
  0.500000000000000     
  0.500000000000000     
  0.500000000000000     
  0.500000000000000     
  0.500000000000000     
  0.500000000000000     
  0.500000000000000     
  0.500000000000000     
  0.500000000000000     
  0.500000000000000     
  0.500000000000000     
  0.500000000000000     
  0.500000000000000     
  0.500000000000000     
  0.500000000000000     
  0.500000000000000     
  0.500000000000000     
  0.500000000000000     
  0.500000000000000     
  0.500000000000000     
  0.500000000000000     
  0.500000000000000     
  0.500000000000000     
  0.500000000000000     
  0.500000000000000     
  0.500000000000000     
  0.500000000000000     
  0.500000000000000     
  0.500000000000000     
  0.500000000000000     
  0.500000000000000     
  0.500000000000000     
  0.500000000000000     
  0.500000000000000     
  0.500000000000000     
  0.500000000000000     
  0.500000000000000     
  0.500000000000000     
  0.500000000000000     
  0.500000000000000     
  0.500000000000000     
  0.500000000000000     
  0.500000000000000     
  0.500000000000000     
  0.500000000000000     
  0.500000000000000     
  0.500000000000000     
  0.500000000000000     
  0.500000000000000     
  0.500000000000000     
  0.500000000000000     
  0.500000000000000     
  0.500000000000000     
  0.500000000000000     
  0.500000000000000     
  0.500000000000000     
  0.500000000000000     
  0.500000000000000     
  0.500000000000000     
  0.500000000000000     
  0.500000000000000     
  0.500000000000000     
  0.500000000000000     
  0.500000000000000     