# vtk DataFile Version 5.1
Data.vtk
ASCII
DATASET UNSTRUCTURED_GRID
 
POINTS 2000 float
   -5.43  -13.44   -1.42
    4.30  -13.85    0.99
   -9.12   -8.49    2.53
  -10.45  -10.05   -1.87
    3.04  -13.29    8.05
   -4.61  -12.80   -9.48
   -4.56  -13.76   -8.50
   -3.95   -9.50   -7.87
    3.04  -13.31   -3.68
   -4.88  -11.80   -1.15
    0.98  -11.28   -2.96
    2.02  -12.40   -6.73
   -3.79  -14.00   -3.31
    0.06  -12.66    3.81
   -3.30   -9.52   -1.15
   -1.35  -14.44    4.55
    3.34  -13.20    4.08
   -8.62  -10.64    8.03
  -11.88   -6.52    7.57
   -3.88   -9.63   -5.01
   -5.94   -9.01   -0.89
  -13.11   -6.13    8.21
   -6.24   -9.99   -9.30
   -7.86   -7.46   -5.99
   -3.44  -13.37   -1.64
    1.64  -11.92   -1.07
   -1.58  -10.40    5.13
   -3.71  -11.15    8.22
    4.01  -11.68   -2.76
    2.33  -13.32    9.22
   -9.64   -8.20   -5.75
    3.01  -14.18    0.49
  -11.07   -7.73    9.46
    1.70  -13.39   -1.83
   -9.08   -7.59   -3.53
  -12.76   -4.82    8.72
    4.78  -13.69    7.94
   -3.93  -10.62    3.49
    3.67  -11.69    1.78
    0.17  -12.77    2.80
   -5.56  -13.39   -3.26
   -9.73   -8.21   -2.00
   -0.46  -13.08   -5.52
   -5.28  -12.46    0.25
    2.55  -12.55   -7.85
   -2.21  -14.31    5.03
   -9.65  -10.82    8.60
   -6.71  -10.22   -5.07
    2.80  -13.28   -0.13
   -8.81   -8.04   -6.53
  -12.95   -6.52   -9.48
   -1.89  -11.13    7.48
    3.54  -14.06    9.50
   -0.04  -12.34    1.55
    4.23  -13.87    4.98
    2.27  -13.52   -0.94
    1.80  -14.22   -6.89
   -2.03  -11.37    1.36
   -3.42   -9.79    0.40
   -5.89  -11.52   -9.09
    1.77  -10.62   -0.72
   -1.18  -10.68   -9.20
   -6.51  -11.15    8.11
  -12.24   -7.48    1.52
   -4.02  -13.93    0.32
   -2.98  -11.08    1.22
  -12.28   -7.61   -8.32
    3.20  -14.14    3.45
  -10.62   -9.87   -8.50
   -0.99  -13.75   -3.12
    5.45  -12.18    3.15
   -2.07   -9.44   -6.32
   -7.55  -11.38   -7.88
    5.05  -13.59    3.55
   -4.95  -13.63    9.49
    2.05  -11.17   -6.86
   -3.14  -13.97    8.84
  -10.22   -9.02   -6.97
   -1.12  -12.53    1.57
    1.00  -14.47    0.98
   -8.79   -7.37    8.84
   -5.92  -13.24    9.50
   -7.95  -11.07   -4.45
   -5.47  -13.43   -9.50
   -7.78   -9.06   -5.92
   -3.34  -12.08   -7.69
   -6.06   -9.33    1.51
    2.27  -14.32   -7.76
    5.91  -12.12    0.04
   -2.11  -13.19    5.86
    3.97  -13.79    0.05
   -9.72   -6.50   -7.58
    0.29  -14.50   -8.30
    4.34  -12.84    6.85
   -7.70  -12.29    9.50
    2.42  -14.30   -3.17
   -5.60  -10.33    2.48
   -0.73  -10.68    4.47
   -8.60  -11.51   -5.53
    3.51  -11.51   -1.41
  -11.89   -8.23    2.09
    4.60  -13.75   -8.01
    5.23  -12.52    0.80
    3.14  -14.16    8.58
    0.06  -11.58    0.90
   -2.05  -14.35   -9.45
   -9.45  -10.99    4.98
    3.54  -13.55   -6.89
   -8.07   -9.11    5.89
   -7.45  -10.32    2.99
    5.79  -12.61    6.15
   -7.85   -9.67   -0.68
   -5.88  -13.25   -2.32
   -5.85  -12.42   -7.67
   -7.90  -12.16    5.36
   -1.78  -13.71   -8.56
   -2.46  -10.07    0.35
    1.70  -13.34   -6.08
  -13.13   -6.04    7.22
   -0.57  -14.49    7.49
   -9.75   -9.45    7.80
   -1.58  -12.49    9.49
    1.06  -11.20    7.67
    4.60  -12.70    3.54
    1.85  -14.38   -1.83
    2.67  -14.20   -4.14
  -10.01  -10.41   -6.07
   -6.41   -9.74    2.40
   -9.36   -8.41   -8.71
   -9.33   -7.38   -8.63
   -5.30  -11.77   -3.88
    4.29  -12.55    2.43
    4.08  -13.91   -2.95
    3.98  -13.94   -0.94
   -0.75  -11.92   -7.73
   -7.89   -9.69    8.13
   -5.99   -8.33   -7.81
   -7.44  -10.56   -6.73
   -9.44   -9.68    9.50
   -8.90  -11.45    0.58
    0.01  -14.50   -0.87
  -10.79   -7.06    3.72
   -1.45  -11.61   -6.04
    3.53  -14.06    7.63
    2.21  -12.90    3.53
   -8.31   -8.20    6.23
   -3.39  -11.56    5.44
  -10.27   -8.81   -9.50
   -7.88   -9.17   -8.45
   -2.37  -11.31   -8.69
   -0.69  -13.59    7.05
    3.23  -13.29   -1.03
   -0.30  -11.96    3.19
    2.25  -12.54   -4.91
   -7.57   -8.32   -7.99
   -5.85  -11.06    1.81
   -3.83  -11.70    1.89
   -3.73  -14.01    6.98
    1.88  -12.21    7.21
   -9.40  -11.03    7.50
    4.31  -12.85   -8.32
   -8.53  -11.73    9.50
  -11.62   -7.06   -8.84
   -7.18  -12.56    4.12
   -3.07  -13.15   -8.51
    4.07  -12.26    1.06
   -6.01   -9.23   -2.45
   -9.01   -7.47   -7.38
   -0.26  -14.50   -4.08
    1.11  -12.14   -6.31
   -7.51  -12.39    1.91
   -1.83  -12.58   -6.39
   -7.08  -10.33    8.04
    1.64  -12.86   -7.54
   -6.15   -9.86    5.50
    0.46  -13.59    3.28
   -5.80   -9.15    8.25
    1.21  -12.95    9.26
    3.10  -12.57   -4.34
   -7.50  -11.59   -0.79
    0.61  -10.94   -1.68
   -2.64  -14.26    3.98
   -5.53  -13.40    2.58
   -2.41  -12.45   -7.63
   -0.14  -11.51    9.48
   -4.88  -13.65   -5.60
   -1.25  -11.06   -2.82
  -12.93   -5.27   -7.07
    1.64  -10.97    3.46
   -8.72   -9.32   -3.39
   -2.99  -11.30   -1.43
   -8.01  -11.04    5.72
  -10.96   -6.29    4.83
   -2.38  -10.85   -7.24
   -3.94  -13.96   -5.32
   -9.98  -10.52    9.50
    0.18  -13.60   -8.72
  -13.35   -5.40   -8.48
  -11.69   -6.77   -1.97
    1.34  -13.65    0.44
   -2.94  -12.66    5.72
  -10.66   -7.50    8.57
   -6.03  -12.40   -8.65
   -8.81  -10.51   -0.99
   -5.06  -13.59    5.51
   -5.17   -8.62   -7.21
   -1.54  -14.42   -5.42
    5.46  -13.43    6.75
    1.08  -13.73   -9.50
    1.78  -11.51   -5.91
    0.67  -12.91    6.21
   -6.93   -8.69   -8.74
    1.57  -13.64    5.99
  -10.90   -9.55   -7.59
   -1.72  -14.40   -6.84
    1.26  -13.80    1.72
    3.72  -13.18    1.46
   -9.62   -6.34    9.45
    0.68  -11.80   -7.99
   -0.97  -10.10   -3.40
   -1.80  -12.83    4.95
   -5.44  -13.44    7.37
   -0.06  -10.34   -2.86
   -3.68  -11.10   -2.14
   -8.16   -8.96    6.88
   -4.19   -9.45    8.20
   -2.17  -11.31   -5.38
  -10.43  -10.03   -3.55
    2.72  -12.10    6.23
   -1.40  -11.54   -8.71
   -7.97   -8.93   -2.55
   -8.41  -11.81    6.22
   -5.10  -10.27   -6.71
   -0.26  -12.56    6.34
    0.82  -11.18   -6.31
   -1.70  -10.60   -1.05
    0.63  -12.25   -1.40
   -2.94  -14.19    2.14
   -2.81  -13.51    3.10
   -3.60  -10.49   -5.44
    5.54  -12.35    1.93
  -11.10   -9.26    7.11
    1.35  -11.86   -7.25
   -4.78   -9.79   -8.35
   -1.47  -14.43    6.49
   -0.21  -10.65    0.52
    0.28  -12.98   -9.50
    2.26  -14.32    3.79
   -3.58  -10.19    8.48
   -2.86   -9.73    7.83
   -9.49   -9.83   -2.74
    1.71  -12.78   -8.83
   -0.15  -12.79   -8.23
   -8.99   -7.66    6.72
  -12.95   -6.53    9.16
   -9.31  -11.06    3.27
   -8.56   -7.91   -8.26
  -11.48   -8.66    6.40
   -0.45  -11.80   -5.65
    3.99  -13.02   -2.34
   -7.11  -10.89   -8.63
    0.13  -13.87   -5.40
    4.20  -12.27    4.35
   -1.31  -14.44    8.28
    0.48  -11.09   -3.84
  -12.28   -6.90   -6.13
  -10.26   -9.71    3.39
    4.67  -12.75    5.91
   -2.18  -11.68   -6.72
    2.16  -13.40   -9.50
    0.88  -12.57   -0.27
   -7.06  -11.11    1.01
   -2.38   -9.85   -7.33
  -11.29   -9.05   -8.37
   -4.48  -13.00   -7.61
   -2.61  -10.05    5.77
   -2.05  -13.61    6.77
  -10.71   -9.78    9.48
   -3.40  -14.10   -8.50
   -4.82  -10.44    0.14
   -7.10   -9.78    5.12
  -10.53   -6.98    6.11
   -4.40  -13.82   -7.04
   -6.41   -8.47    8.80
   -0.76  -12.10   -0.78
   -0.31  -14.50    8.46
   -4.83  -11.58   -2.17
   -5.14  -12.62    7.86
   -3.17  -14.15   -9.49
   -8.67  -11.61    5.05
   -7.13   -9.08    0.67
   -4.49  -13.75    7.61
    1.20  -12.59   -2.15
   -2.50  -13.29   -7.09
   -5.36  -10.75    9.48
    4.46  -12.19   -2.02
  -12.82   -6.77   -7.61
   -0.31  -13.55    6.13
   -7.56  -11.41    6.55
   -8.73   -8.38   -4.10
  -11.09   -9.34   -1.58
  -11.02   -9.43    8.30
   -1.85  -12.00    2.93
    4.97  -13.62   -6.09
   -4.32  -13.75   -0.61
   -9.81   -7.31    7.17
   -1.23  -13.14    6.34
   -6.39   -8.54   -4.78
    3.65  -14.03   -4.02
   -4.47  -12.35    9.50
   -6.13  -13.14   -6.70
   -1.38  -11.92    5.04
    3.10  -14.16   -0.50
    2.19  -12.61   -2.25
   -8.64   -9.91   -9.47
  -10.10  -10.15   -7.65
   -7.50   -8.27   -9.50
    0.56  -13.72   -0.39
   -5.78   -9.55    3.15
    0.67  -11.78   -5.41
   -5.46   -9.15   -8.01
   -4.48  -13.79   -9.50
  -10.85   -7.04   -2.78
   -7.41   -8.80   -1.62
    4.34  -13.83   -1.88
    4.21  -13.88    1.99
    5.22  -13.50    0.53
  -11.96   -8.20    9.50
   -6.91   -9.54   -5.79
   -1.04  -13.60    4.08
    0.31  -14.50    0.19
   -7.44  -12.45   -2.70
   -7.43   -8.24    2.12
   -4.27  -11.26   -2.95
   -3.99  -10.04    6.02
    2.39  -12.33   -3.19
   -2.84  -12.76    9.50
    2.06  -11.20    4.51
   -3.90  -10.42   -0.28
   -0.08  -14.48   -2.12
    1.71  -14.40   -3.88
   -7.01   -9.32   -7.97
  -11.98   -7.90    6.81
   -2.12  -11.27    4.84
   -4.31  -10.73   -9.50
    0.75  -12.58   -8.62
   -0.44  -14.49    6.49
    2.49  -14.28   -5.66
   -3.44  -12.49   -6.34
   -0.06  -11.24    4.97
    2.38  -11.91   -4.12
   -4.65   -8.94   -9.50
   -1.73  -10.30   -2.12
    7.09  -12.65    3.20
   -6.02  -11.61   -5.88
   -2.80  -14.23    7.28
   -8.45  -11.78   -9.50
   -5.29   -9.12    3.96
    0.30  -13.43    6.98
    2.46  -12.23   -5.84
   -2.62   -9.34    6.48
   -7.42   -8.17    6.99
    0.08  -14.50   -6.99
   -8.37   -9.74    9.50
  -11.96   -8.06    3.72
    3.97  -12.86   -0.34
    1.89  -12.74    6.36
   -7.80   -8.26   -4.76
   -2.88  -14.20   -2.94
   -2.27  -13.40    7.96
   -6.75  -11.48   -6.93
   -8.21  -10.81   -9.42
   -9.35  -10.81   -7.57
    0.02  -10.94    8.66
    4.95  -12.88   -7.38
   -1.45  -10.81    1.96
  -13.34   -5.66    9.48
    0.45  -14.49    3.72
   -1.32  -12.16   -2.51
   -7.31  -12.51   -9.37
   -7.86   -7.74   -7.23
    2.73  -13.33   -5.31
   -2.05   -9.75   -2.89
   -2.99  -12.29    7.04
    2.96  -12.69   -6.89
   -5.54  -10.68   -9.50
    1.12  -14.45   -1.03
   -8.55  -11.69    3.15
   -3.62  -11.30   -4.56
  -11.87   -8.22   -9.50
   -2.62  -10.67    8.11
  -11.35   -9.01    9.44
   -0.65  -13.87   -9.50
   -7.73  -11.02    8.36
    0.59  -13.65    8.56
  -10.73   -9.73    5.11
[...]
POINT_DATA 2000
SCALARS radius float
LOOKUP_TABLE default
  0.500000000000000     
  0.500000000000000     
  0.500000000000000     
  0.500000000000000     
  0.500000000000000     
  0.500000000000000     
  0.500000000000000     
  0.500000000000000     
  0.500000000000000     
  0.500000000000000     
  0.500000000000000     
  0.500000000000000     
  0.500000000000000     
  0.500000000000000     
  0.500000000000000     
  0.500000000000000     
  0.500000000000000     
  0.500000000000000     
  0.500000000000000     
  0.500000000000000     
  0.500000000000000     
  0.500000000000000     
  0.500000000000000     
  0.500000000000000     
  0.500000000000000     
  0.500000000000000     
  0.500000000000000     
  0.500000000000000     
  0.500000000000000     
  0.500000000000000     
  0.500000000000000     
  0.500000000000000     
  0.500000000000000     
  0.500000000000000     
  0.500000000000000     
  0.500000000000000     
  0.500000000000000     
  0.500000000000000     
  0.500000000000000     
  0.500000000000000     
  0.500000000000000     
  0.500000000000000     
  0.500000000000000     
  0.500000000000000     
  0.500000000000000     
  0.500000000000000     
  0.500000000000000     
  0.500000000000000     
  0.500000000000000     
  0.500000000000000     
  0.500000000000000     
  0.500000000000000     
  0.500000000000000     
  0.500000000000000     
  0.500000000000000     
  0.500000000000000     
  0.500000000000000     
  0.500000000000000     
  0.500000000000000     
  0.500000000000000     
  0.500000000000000     
  0.500000000000000     
  0.500000000000000     
  0.500000000000000     
  0.500000000000000     
  0.500000000000000     
  0.500000000000000     
  0.500000000000000     
  0.500000000000000     
  0.500000000000000     
  0.500000000000000     
  0.500000000000000     
  0.500000000000000     
  0.500000000000000     
  0.500000000000000     
  0.500000000000000     
  0.500000000000000     
  0.500000000000000     
  0.500000000000000     
  0.500000000000000     
  0.500000000000000     
  0.500000000000000     
  0.500000000000000     
  0.500000000000000     
  0.500000000000000     
  0.500000000000000     
  0.500000000000000     
  0.500000000000000     
  0.500000000000000     
  0.500000000000000     
  0.500000000000000     
  0.500000000000000     
  0.500000000000000     
  0.500000000000000     
  0.500000000000000     
  0.500000000000000     
  0.500000000000000     
  0.500000000000000     
  0.500000000000000     
  0.500000000000000     
  0.500000000000000     
  0.500000000000000     
  0.500000000000000     
  0.500000000000000     
  0.500000000000000     
  0.500000000000000     
  0.500000000000000     
  0.500000000000000     
  0.500000000000000     
  0.500000000000000     
  0.500000000000000     
  0.500000000000000     
  0.500000000000000     
  0.500000000000000     
  0.500000000000000     
  0.500000000000000     
  0.500000000000000     
  0.500000000000000     
  0.500000000000000     
  0.500000000000000     
  0.500000000000000     
  0.500000000000000     
  0.500000000000000     
  0.500000000000000     
  0.500000000000000     
  0.500000000000000     
  0.500000000000000     
  0.500000000000000     
  0.500000000000000     
  0.500000000000000     
  0.500000000000000     
  0.500000000000000     
  0.500000000000000     
  0.500000000000000     
  0.500000000000000     
  0.500000000000000     
  0.500000000000000     
  0.500000000000000     
  0.500000000000000     
  0.500000000000000     
  0.500000000000000     
  0.500000000000000     
  0.500000000000000     
  0.500000000000000     
  0.500000000000000     
  0.500000000000000     
  0.500000000000000     
  0.500000000000000     
  0.500000000000000     
  0.500000000000000     
  0.500000000000000     
  0.500000000000000     
  0.500000000000000     
  0.500000000000000     
  0.500000000000000     
  0.500000000000000     
  0.500000000000000     
  0.500000000000000     
  0.500000000000000     
  0.500000000000000     
  0.500000000000000     
  0.500000000000000     
  0.500000000000000     
  0.500000000000000     
  0.500000000000000     
  0.500000000000000     
  0.500000000000000     
  0.500000000000000     
  0.500000000000000     
  0.500000000000000     
  0.500000000000000     
  0.500000000000000     
  0.500000000000000     
  0.500000000000000     
  0.500000000000000     
  0.500000000000000     
  0.500000000000000     
  0.500000000000000     
  0.500000000000000     
  0.500000000000000     
  0.500000000000000     
  0.500000000000000     
  0.500000000000000     
  0.500000000000000     
  0.500000000000000     
  0.500000000000000     
  0.500000000000000     
  0.500000000000000     
  0.500000000000000     
  0.500000000000000     
  0.500000000000000     
  0.500000000000000     
  0.500000000000000     
  0.500000000000000     
  0.500000000000000     
  0.500000000000000     
  0.500000000000000     
  0.500000000000000     
  0.500000000000000     
  0.500000000000000     
  0.500000000000000     
  0.500000000000000     
  0.500000000000000     
  0.500000000000000     
  0.500000000000000     
  0.500000000000000     
  0.500000000000000     
  0.500000000000000     
  0.500000000000000     
  0.500000000000000     
  0.500000000000000     
  0.500000000000000     
  0.500000000000000     
  0.500000000000000     
  0.500000000000000     
  0.500000000000000     
  0.500000000000000     
  0.500000000000000     
  0.500000000000000     
  0.500000000000000     
  0.500000000000000     
  0.500000000000000     
  0.500000000000000     
  0.500000000000000     
  0.500000000000000     
  0.500000000000000     
  0.500000000000000     
  0.500000000000000     
  0.500000000000000     
  0.500000000000000     
  0.500000000000000     
  0.500000000000000     
  0.500000000000000     
  0.500000000000000     
  0.500000000000000     
  0.500000000000000     
  0.500000000000000     
  0.500000000000000     
  0.500000000000000     
  0.500000000000000     
  0.500000000000000     
  0.500000000000000     
  0.500000000000000     
  0.500000000000000     
  0.500000000000000     
  0.500000000000000     
  0.500000000000000     
  0.500000000000000     
  0.500000000000000     
  0.500000000000000     
  0.500000000000000     
  0.500000000000000     
  0.500000000000000     
  0.500000000000000     
  0.500000000000000     
  0.500000000000000     
  0.500000000000000     
  0.500000000000000     
  0.500000000000000     
  0.500000000000000     
  0.500000000000000     
  0.500000000000000     
  0.500000000000000     
  0.500000000000000     
  0.500000000000000     
  0.500000000000000     
  0.500000000000000     
  0.500000000000000     
  0.500000000000000     
  0.500000000000000     
  0.500000000000000     
  0.500000000000000     
  0.500000000000000     
  0.500000000000000     
  0.500000000000000     
  0.500000000000000     
  0.500000000000000     
  0.500000000000000     
  0.500000000000000     
  0.500000000000000     
  0.500000000000000     
  0.500000000000000     
  0.500000000000000     
  0.500000000000000     
  0.500000000000000     
  0.500000000000000     
  0.500000000000000     
  0.500000000000000     
  0.500000000000000     
  0.500000000000000     
  0.500000000000000     
  0.500000000000000     
  0.500000000000000     
  0.500000000000000     
  0.500000000000000     
  0.500000000000000     
  0.500000000000000     
  0.500000000000000     
  0.500000000000000     
  0.500000000000000     
  0.500000000000000     
  0.500000000000000     
  0.500000000000000     
  0.500000000000000     
  0.500000000000000     
  0.500000000000000     
  0.500000000000000     
  0.500000000000000     
  0.500000000000000     
  0.500000000000000     
  0.500000000000000     
  0.500000000000000     
  0.500000000000000     
  0.500000000000000     
  0.500000000000000     
  0.500000000000000     
  0.500000000000000     
  0.500000000000000     
  0.500000000000000     
  0.500000000000000     
  0.500000000000000     
  0.500000000000000     
  0.500000000000000     
  0.500000000000000     
  0.500000000000000     
  0.500000000000000     
  0.500000000000000     
  0.500000000000000     
  0.500000000000000     
  0.500000000000000     
  0.500000000000000     
  0.500000000000000     
  0.500000000000000     
  0.500000000000000     
  0.500000000000000     
  0.500000000000000     
  0.500000000000000     
  0.500000000000000     
  0.500000000000000     
  0.500000000000000     
  0.500000000000000     
  0.500000000000000     
  0.500000000000000     
  0.500000000000000     
  0.500000000000000     
  0.500000000000000     
  0.500000000000000     
  0.500000000000000     
  0.500000000000000     
  0.500000000000000     
  0.500000000000000     
  0.500000000000000     
  0.500000000000000     
  0.500000000000000     
  0.500000000000000     
  0.500000000000000     
  0.500000000000000     
  0.500000000000000     
  0.500000000000000     
  0.500000000000000     
  0.500000000000000     
  0.500000000000000     
  0.500000000000000     
  0.500000000000000     
  0.500000000000000     
  0.500000000000000     
  0.500000000000000     
  0.500000000000000     
  0.500000000000000     
  0.500000000000000     
  0.500000000000000     
  0.500000000000000     
  0.500000000000000     
  0.500000000000000     
  0.500000000000000     
  0.500000000000000     
  0.500000000000000     
  0.500000000000000     
  0.500000000000000     
  0.500000000000000     
  0.500000000000000     
  0.500000000000000     
  0.500000000000000     
  0.500000000000000     
  0.500000000000000     
  0.500000000000000     
  0.500000000000000     
  0.500000000000000     
  0.500000000000000     
  0.500000000000000     
  0.500000000000000     
  0.500000000000000     
  0.500000000000000     
  0.500000000000000     
  0.500000000000000     
  0.500000000000000     
  0.500000000000000     
  0.500000000000000     
  0.500000000000000     
  0.500000000000000     
  0.500000000000000     
  0.500000000000000     
  0.500000000000000     
  0.500000000000000     
  0.500000000000000     
  0.500000000000000     
  0.500000000000000     
  0.500000000000000     
  0.500000000000000     
  0.500000000000000     
  0.500000000000000     
  0.500000000000000     
  0.500000000000000     
  0.500000000000000     
  0.500000000000000     
  0.500000000000000     
  0.500000000000000     
  0.500000000000000     
  0.500000000000000     
  0.500000000000000     
  0.500000000000000     
  0.500000000000000     
  0.500000000000000     
  0.500000000000000     
  0.500000000000000     
  0.500000000000000     
  0.500000000000000     
  0.500000000000000     
  0.500000000000000     
  0.500000000000000     
  0.500000000000000     
  0.500000000000000     
  0.500000000000000     
  0.500000000000000     
  0.500000000000000     
  0.500000000000000     
  0.500000000000000     
  0.500000000000000     
  0.500000000000000     
  0.500000000000000     
  0.500000000000000     
  0.500000000000000     
  0.500000000000000     
  0.500000000000000     
  0.500000000000000     
  0.500000000000000     
  0.500000000000000     
  0.500000000000000     
  0.500000000000000     
  0.500000000000000     
  0.500000000000000     
  0.500000000000000     
  0.500000000000000     
  0.500000000000000     
  0.500000000000000     
  0.500000000000000     
  0.500000000000000     
  0.500000000000000     
  0.500000000000000     
  0.500000000000000     
  0.500000000000000     
  0.500000000000000     
  0.500000000000000     
  0.500000000000000     
  0.500000000000000     
  0.500000000000000     
  0.500000000000000     
  0.500000000000000     
  0.500000000000000     
  0.500000000000000     
  0.500000000000000     
  0.500000000000000     
  0.500000000000000     
  0.500000000000000     
  0.500000000000000     
  0.500000000000000     
  0.500000000000000     
  0.500000000000000     
  0.500000000000000     
  0.500000000000000     
  0.500000000000000     
  0.500000000000000     
  0.500000000000000     
  0.500000000000000     
  0.500000000000000     
  0.500000000000000     
  0.500000000000000     
  0.500000000000000     
  0.500000000000000     
  0.500000000000000     
  0.500000000000000     
  0.500000000000000     
  0.500000000000000     
  0.500000000000000     
  0.500000000000000     
  0.500000000000000     
  0.500000000000000     
  0.500000000000000     
  0.500000000000000     
  0.500000000000000     
  0.500000000000000     
  0.500000000000000     
  0.500000000000000     
  0.500000000000000     
  0.500000000000000     
  0.500000000000000     
  0.500000000000000     
  0.500000000000000     
  0.500000000000000     
  0.500000000000000     
  0.500000000000000     
  0.500000000000000     
  0.500000000000000     
  0.500000000000000     
  0.500000000000000     
  0.500000000000000     
  0.500000000000000     
  0.500000000000000     
  0.500000000000000     
  0.500000000000000     
  0.500000000000000     
  0.500000000000000     
  0.500000000000000     
  0.500000000000000     
  0.500000000000000     
  0.500000000000000     
  0.500000000000000     
  0.500000000000000     
  0.500000000000000     
  0.500000000000000     
  0.500000000000000     
  0.500000000000000     
  0.500000000000000     
  0.500000000000000     
  0.500000000000000     
  0.500000000000000     
  0.500000000000000     
  0.500000000000000     
  0.500000000000000     
  0.500000000000000     
  0.500000000000000     
  0.500000000000000     
  0.500000000000000     
  0.500000000000000     
  0.500000000000000     
  0.500000000000000     
  0.500000000000000     
  0.500000000000000     
  0.500000000000000     
  0.500000000000000     
  0.500000000000000     
  0.500000000000000     
  0.500000000000000     
  0.500000000000000     
  0.500000000000000     
  0.500000000000000     
  0.500000000000000     
  0.500000000000000     
  0.500000000000000     
  0.500000000000000     
  0.500000000000000     
  0.500000000000000     
  0.500000000000000     
  0.500000000000000     
  0.500000000000000     
  0.500000000000000     
  0.500000000000000     
  0.500000000000000     
  0.500000000000000     
  0.500000000000000     
  0.500000000000000     
  0.500000000000000     
  0.500000000000000     
  0.500000000000000     
  0.500000000000000     
  0.500000000000000     
  0.500000000000000     
  0.500000000000000     
  0.500000000000000     
  0.500000000000000     
  0.500000000000000     
  0.500000000000000     
  0.500000000000000     
  0.500000000000000     
  0.500000000000000     
  0.500000000000000     
  0.500000000000000     
  0.500000000000000     
  0.500000000000000     
  0.500000000000000     
  0.500000000000000     
  0.500000000000000     
  0.500000000000000     
  0.500000000000000     
  0.500000000000000     
  0.500000000000000     
  0.500000000000000     
  0.500000000000000     
  0.500000000000000     
  0.500000000000000     
  0.500000000000000     
  0.500000000000000     
  0.500000000000000     
  0.500000000000000     
  0.500000000000000     
  0.500000000000000     
  0.500000000000000     
  0.500000000000000     
  0.500000000000000     
  0.500000000000000     
  0.500000000000000     
  0.500000000000000     
  0.500000000000000     
  0.500000000000000     
  0.500000000000000     
  0.500000000000000     
  0.500000000000000     
  0.500000000000000     
  0.500000000000000     
  0.500000000000000     
  0.500000000000000     
  0.500000000000000     
  0.500000000000000     
  0.500000000000000     
  0.500000000000000     
  0.500000000000000     
  0.500000000000000     
  0.500000000000000     
  0.500000000000000     
  0.500000000000000     
  0.500000000000000     
  0.500000000000000     
  0.500000000000000     
  0.500000000000000     
  0.500000000000000     
  0.500000000000000     
  0.500000000000000     
  0.500000000000000     
  0.500000000000000     
  0.500000000000000     
  0.500000000000000     
  0.500000000000000     
  0.500000000000000     
  0.500000000000000     
  0.500000000000000     
  0.500000000000000     
  0.500000000000000     
  0.500000000000000     
  0.500000000000000     
  0.500000000000000     
  0.500000000000000     
  0.500000000000000     
  0.500000000000000     
  0.500000000000000     
  0.500000000000000     
  0.500000000000000     
  0.500000000000000     
  0.500000000000000     
  0.500000000000000     
  0.500000000000000     
  0.500000000000000     
  0.500000000000000     
  0.500000000000000     
  0.500000000000000     
  0.500000000000000     
  0.500000000000000     
  0.500000000000000     
  0.500000000000000     
  0.500000000000000     
  0.500000000000000     
  0.500000000000000     
  0.500000000000000     
  0.500000000000000     
  0.500000000000000     
  0.500000000000000     
  0.500000000000000     
  0.500000000000000     
  0.500000000000000     
  0.500000000000000     
  0.500000000000000     
  0.500000000000000     
  0.500000000000000     
  0.500000000000000     
  0.500000000000000     
  0.500000000000000     
  0.500000000000000     
  0.500000000000000     
  0.500000000000000     
  0.500000000000000     
  0.500000000000000     
  0.500000000000000     
  0.500000000000000     
  0.500000000000000     
  0.500000000000000     
  0.500000000000000     
  0.500000000000000     
  0.500000000000000     
  0.500000000000000     
  0.500000000000000     
  0.500000000000000     
  0.500000000000000     
  0.500000000000000     
  0.500000000000000     
  0.500000000000000     
  0.500000000000000     
  0.500000000000000     
  0.500000000000000     
  0.500000000000000     
  0.500000000000000     
  0.500000000000000     
  0.500000000000000     
  0.500000000000000     
  0.500000000000000     
  0.500000000000000     
  0.500000000000000     
  0.500000000000000     
  0.500000000000000     
  0.500000000000000     
  0.500000000000000     
  0.500000000000000     
  0.500000000000000     
  0.500000000000000     
  0.500000000000000     
  0.500000000000000     
  0.500000000000000     
  0.500000000000000     
  0.500000000000000     
  0.500000000000000     
  0.500000000000000     
  0.500000000000000     
  0.500000000000000     
  0.500000000000000     
  0.500000000000000     
  0.500000000000000     
  0.500000000000000     
  0.500000000000000     
  0.500000000000000     
  0.500000000000000     
  0.500000000000000     
  0.500000000000000     
  0.500000000000000     
  0.500000000000000     
  0.500000000000000     
  0.500000000000000     
  0.500000000000000     
  0.500000000000000     
  0.500000000000000     
  0.500000000000000     
  0.500000000000000     
  0.500000000000000     
  0.500000000000000     
  0.500000000000000     
  0.500000000000000     
  0.500000000000000     
  0.500000000000000     
  0.500000000000000     
  0.500000000000000     
  0.500000000000000     
  0.500000000000000     
  0.500000000000000     
  0.500000000000000     
  0.500000000000000     
  0.500000000000000     
  0.500000000000000     
  0.500000000000000     
  0.500000000000000     
  0.500000000000000     
  0.500000000000000     
  0.500000000000000     
  0.500000000000000     
  0.500000000000000     
  0.500000000000000     
  0.500000000000000     
  0.500000000000000     
  0.500000000000000     
  0.500000000000000     
  0.500000000000000     
  0.500000000000000     
  0.500000000000000     
  0.500000000000000     
  0.500000000000000     
  0.500000000000000     
  0.500000000000000     
  0.500000000000000     
  0.500000000000000     
  0.500000000000000     
  0.500000000000000     
  0.500000000000000     
  0.500000000000000     
  0.500000000000000     
  0.500000000000000     
  0.500000000000000     
  0.500000000000000     
  0.500000000000000     
  0.500000000000000     
  0.500000000000000     
  0.500000000000000     