# vtk DataFile Version 5.1
Data.vtk
ASCII
DATASET UNSTRUCTURED_GRID
 
POINTS 2000 float
    5.93  -13.23   -1.89
   -4.37  -10.87    0.71
   -4.22  -13.87    3.12
   -0.97  -13.46   -2.58
   -8.26   -8.90    6.61
   -1.84  -10.71   -8.54
    3.02  -12.11   -5.76
  -11.01   -9.40   -8.53
   -2.03  -10.84   -1.64
   -7.14  -10.94   -0.26
  -10.20   -7.92   -2.99
   -7.58   -8.58   -7.39
    0.45  -13.72   -2.80
   -0.47  -12.52    1.96
   -9.06  -11.31   -1.34
    2.86  -11.38    0.92
   -5.94  -10.31    3.75
    1.35  -13.44    8.14
    3.09  -14.17    8.57
   -8.36  -11.77   -6.91
   -8.28  -11.86   -1.66
    1.35  -14.44    8.07
   -0.95  -11.75   -9.19
   -3.84  -13.98   -9.50
   -0.08  -13.72   -1.43
  -12.78   -6.84   -1.11
   -9.89  -10.61    6.47
   -2.42  -12.35    8.12
   -9.48   -8.31   -0.67
   -9.98   -6.79    7.99
   -4.08  -13.91   -6.90
   -3.58   -9.35   -0.02
    0.51  -12.45    9.45
   -1.03  -11.29   -1.56
   -9.67  -10.80   -6.35
   -0.10  -14.50    9.02
   -3.25   -9.89    3.79
  -11.85   -7.30    5.61
   -9.69   -8.62    1.05
   -1.70  -12.22    1.59
    6.21  -13.10   -2.98
   -3.31  -14.12   -2.61
   -6.96   -8.67   -4.25
   -1.79  -13.75    0.44
   -8.49   -8.52   -6.68
    4.16  -12.67    1.99
    4.59  -12.86    6.81
   -2.39  -13.34   -6.72
   -2.38  -11.34    1.53
   -3.75  -13.99   -7.84
    4.92  -13.64   -8.98
   -8.83   -8.91    9.50
   -6.40   -9.55    6.57
   -5.98  -10.57    2.59
   -6.29   -8.01    2.37
   -2.37  -11.48    0.46
    1.65  -11.16   -3.68
  -11.18   -8.47    2.49
  -10.63   -9.87    1.21
   -1.24  -10.78   -7.74
  -11.13   -9.20   -1.64
   -9.42   -7.88   -9.21
   -2.01  -12.64    7.26
   -0.89  -14.47    1.92
    4.86  -12.73    0.50
   -6.95  -11.86    0.44
   -0.19  -13.64   -8.15
   -4.60  -10.26    2.26
    4.84  -13.67   -7.89
   -2.61  -11.77   -1.89
   -8.95   -9.09    3.80
   -8.60  -11.68   -9.50
    2.07  -13.56   -6.69
   -5.85   -8.85    3.87
   -1.29   -9.84    5.12
  -10.36  -10.15   -8.43
    0.25  -10.83    6.62
    0.45  -14.49   -6.72
   -5.50  -11.58    2.59
   -1.37   -9.64    0.42
   -5.14  -12.50    9.50
   -0.06  -10.04    5.13
   -1.76  -13.71   -4.11
    2.76  -11.17   -5.55
   -4.42  -12.99   -8.55
   -1.98  -11.94   -5.85
   -6.35  -13.04    1.99
   -0.79  -10.53   -3.84
  -10.33   -8.65   -0.03
   -4.32  -11.14    5.74
   -1.25  -12.13   -0.14
   -4.77  -12.08   -9.50
   -9.37   -7.72   -2.20
   -8.66   -8.06    5.61
    4.17  -13.27    4.50
   -3.74   -9.26   -1.00
   -8.49  -10.77    2.71
   -8.09  -10.93    5.72
    3.58  -14.05   -5.01
  -10.25   -8.04   -1.32
    0.30  -14.50    2.18
    1.40  -11.31   -2.42
   -6.20   -8.39    1.45
   -5.85   -8.78    4.87
  -10.55   -8.35    1.67
    2.10  -11.52   -4.90
    3.52  -14.07    4.81
   -6.45   -9.09   -3.04
   -8.57  -11.60    8.53
   -7.39  -11.62    3.57
  -11.37   -7.05    7.25
   -6.74  -11.94   -1.93
    6.98  -12.71   -2.30
    1.28  -12.94   -7.80
    5.92  -13.24    3.88
    0.26  -11.30   -6.89
   -9.99  -10.37    0.20
   -6.04   -8.66   -3.86
   -0.81  -14.48    6.92
   -6.46   -8.48    7.35
    1.08  -13.62    9.50
   -4.83   -9.64    9.46
   -7.10  -11.16    8.84
   -3.93  -10.22    3.00
   -5.28   -9.70    0.42
    1.81  -12.22   -2.31
    2.60  -14.26   -5.10
   -6.60  -12.88    3.11
   -0.08  -13.58   -9.50
   -4.13  -12.86   -9.50
   -3.58  -12.44   -3.98
   -7.44   -8.53    2.56
    3.57  -11.85   -1.08
   -3.61  -10.04    0.71
   -5.10  -10.56   -6.00
   -2.59  -13.21    8.60
   -5.78  -13.30   -9.50
    2.39  -14.30   -7.57
    0.75  -10.94    7.49
    3.63  -14.04    0.68
   -0.16  -11.74   -1.26
   -6.56  -12.90    5.15
   -6.63  -10.68   -6.28
   -7.08   -7.93    5.09
   -7.50   -8.02    3.55
   -8.02  -10.76    8.76
   -6.92  -10.65    5.42
    1.40  -13.46   -9.50
   -1.19  -13.61   -8.08
   -8.17  -10.13   -9.50
   -1.41  -10.84    5.12
   -6.57   -8.64   -0.46
   -7.28   -9.00    3.44
   -3.83   -9.91   -3.04
   -6.85  -12.77   -9.50
   -8.13  -10.91    1.59
   -7.41  -11.38    2.10
    1.95  -11.61    3.98
   -5.46   -9.92    6.24
    4.58  -13.68    6.12
   -9.21   -8.27   -5.03
    2.78  -11.15    4.30
   -2.56  -14.27   -9.41
    5.38  -13.43    3.06
   -0.47  -10.92   -5.87
   -7.41   -9.38    2.04
   -7.38  -12.48   -4.40
   -5.60  -13.30   -8.34
    3.86  -12.64   -1.84
   -6.40   -9.69   -6.62
    4.11  -13.91    1.85
   -5.76   -9.94   -4.73
   -1.34  -11.94    8.70
   -5.78   -9.69   -3.76
   -5.98  -11.83    5.61
   -2.57   -9.87    1.38
   -5.46  -10.44    9.09
   -6.31   -9.11    8.11
   -7.37   -9.02   -2.62
   -3.93  -13.05   -1.27
  -13.39   -5.41   -8.13
    2.74  -11.70    1.86
    5.10  -13.58    0.98
   -2.89  -10.67   -6.51
   -4.28  -10.43    8.10
    2.44  -13.42   -4.58
  -11.58   -7.31   -4.63
   -3.25  -14.12   -8.69
  -12.32   -6.83    7.02
   -5.18  -13.53   -3.48
   -7.43  -11.22   -1.87
   -0.18  -13.82    6.02
   -5.71  -12.80    8.73
   -8.64   -8.42   -9.49
    1.21  -12.10   -3.11
    3.25  -12.31    7.87
   -3.57   -9.78   -5.09
    2.74  -14.22   -9.50
   -5.21  -13.53   -1.52
   -1.63  -11.06   -0.75
   -2.57  -11.17    5.11
   -1.94  -13.03    9.50
    2.87  -12.43   -7.68
   -5.63  -12.61   -1.95
    0.68  -13.78    3.85
  -10.44   -8.51   -9.43
    3.62  -11.33   -4.39
   -7.09   -8.85    5.54
    0.21  -10.46   -5.29
   -8.28   -9.27   -7.55
   -6.40   -9.52    5.25
   -2.42  -13.27   -9.28
   -2.04  -10.61    2.65
    2.22  -13.32   -7.70
   -0.70  -10.78   -4.82
   -1.53  -11.41    1.00
   -2.79  -10.60    0.71
   -3.93  -13.96    9.40
   -7.09   -9.69   -7.95
  -10.58   -9.52   -4.90
   -3.12  -10.50    4.61
   -0.73  -11.56    5.25
  -12.75   -6.90   -4.59
   -6.85  -11.31   -2.69
   -3.28  -13.15    9.50
   -3.70  -12.16    9.50
   -9.84   -7.66   -7.17
    2.17  -14.33   -4.16
   -8.15   -8.99    8.54
   -3.19  -11.54   -8.68
   -7.14  -12.60   -6.19
    2.28  -12.89    5.04
   -4.41  -11.48   -7.24
   -6.44  -10.55    6.80
  -13.03   -6.31   -8.36
   -9.39  -10.89   -3.14
   -9.01   -8.41    0.31
    2.08  -10.86    1.25
    0.99  -13.18    3.10
   -9.03   -9.34   -6.88
  -11.62   -6.87    4.74
    3.47  -14.08    5.88
  -10.41   -7.53   -8.55
   -4.76  -11.02   -8.14
    4.12  -11.96    3.30
  -12.49   -7.37    1.06
   -3.59   -9.58   -6.84
   -0.08  -10.88   -0.17
   -3.20  -11.30    9.50
   -7.15  -10.41    9.50
   -5.83  -12.19   -3.44
   -6.97   -8.23   -9.23
   -4.92  -10.62   -7.17
   -5.82  -13.28    7.49
    4.59  -13.75    9.49
   -0.01  -13.32    3.28
   -3.68  -11.91   -9.49
    2.47  -14.29    5.80
   -9.35   -7.66   -5.87
   -1.15  -12.32   -1.13
   -2.09  -11.68   -8.98
    0.33  -11.84   -4.92
   -9.60   -7.75    5.47
   -2.48  -10.14    5.32
  -12.98   -6.07   -7.40
   -0.89  -14.47   -5.60
    2.10  -14.35    3.07
   -4.41   -9.36    2.84
   -5.83  -11.35   -7.28
   -4.69   -9.72   -6.79
   -7.77  -10.17   -0.11
   -4.88  -12.50    1.13
   -6.16  -11.89   -8.05
    3.78  -14.00   -7.80
    2.02  -12.44   -7.15
  -10.00   -8.96    9.26
    1.82  -13.25    4.23
    4.37  -11.89    6.85
    4.13  -12.14   -5.42
   -8.28  -11.04   -0.30
   -5.94  -12.43    6.41
   -2.25  -14.27    7.79
    2.47  -12.27   -4.33
   -0.25  -11.80    9.39
   -9.51   -9.48   -1.54
   -1.78  -10.41    4.30
   -3.25  -13.32   -2.01
   -2.73  -11.96    7.15
   -1.88  -10.56   -6.80
    4.91  -13.64    3.92
   -7.22  -12.55    2.02
    0.64  -11.09    3.24
   -7.47   -9.32   -1.24
    1.65  -12.11   -6.27
   -2.89  -10.56    7.89
   -2.73  -11.63   -0.91
    2.33  -14.31   -8.59
   -3.67  -10.43    5.44
   -0.36  -13.58    7.01
   -6.47  -12.98   -7.95
    1.53  -14.41   -1.95
    4.59  -13.75    7.34
   -6.51  -11.42    2.53
   -6.40   -8.37   -2.34
    6.78  -12.82   -0.83
    2.33  -14.31    7.92
   -1.98  -11.30    5.98
   -7.16  -12.60   -8.56
   -4.80  -10.55   -0.89
   -5.90   -8.06    5.57
    0.32  -12.00   -6.11
   -5.43  -10.62    4.56
   -2.82  -10.15   -0.18
   -6.99   -9.55   -0.25
    2.87  -12.08   -8.63
    4.04  -13.60   -6.68
   -0.75  -12.68   -9.50
    1.83  -12.24   -0.66
  -10.76   -9.45    5.13
   -9.20   -8.65   -5.95
   -5.76  -12.23   -9.50
   -3.95   -8.73   -4.34
   -6.10  -13.15   -3.53
   -4.24  -13.87   -3.56
   -4.86   -8.43   -2.11
   -1.80  -10.48    0.76
  -11.28   -7.03    2.60
    5.05  -13.59    8.35
   -7.53  -11.23   -7.03
    1.04  -13.49    2.15
   -1.83  -10.14   -0.36
    1.44  -13.59   -2.55
   -5.16  -13.54    3.18
   -6.30  -11.78   -4.22
   -8.81  -10.25    8.43
   -9.92   -8.86   -3.16
   -3.56   -9.88    7.59
  -10.33  -10.14    5.72
   -9.45  -10.88   -0.53
    1.73  -13.04   -1.76
   -1.18  -10.64   -2.37
   -4.67  -12.03   -8.49
    1.46  -14.33    6.54
   -8.92  -10.39    5.89
   -4.90  -10.33   -9.49
   -5.90   -9.62   -7.50
    0.30  -11.60    2.45
   -5.13   -9.68   -1.92
   -2.39  -12.32   -5.03
  -12.89   -6.00    7.76
   -9.39   -9.60   -3.58
   -3.59  -10.66   -8.94
  -11.13   -8.74   -5.33
   -9.99   -7.55    3.62
   -0.45  -12.90   -5.47
   -3.62   -9.04    3.41
    4.12  -13.09   -5.78
   -7.01  -12.69    9.50
   -0.84  -10.53    3.93
   -7.97   -8.73   -4.49
   -7.86  -12.18    9.50
   -6.84  -12.11    8.70
    1.17  -11.24   -4.64
    0.68  -11.95    8.41
   -0.90  -14.47    4.05
   -8.60   -8.27    1.40
   -7.55   -8.53    4.42
   -9.39  -11.05   -9.50
    2.29  -11.19   -2.91
   -0.23  -10.82    5.74
    0.15  -13.65   -6.28
    0.81  -11.35   -7.78
    5.88  -13.25   -8.03
   -8.00   -8.23    9.39
   -4.61   -9.22   -2.68
  -10.25  -10.26    3.72
    3.63  -14.02    9.42
   -1.04  -10.53    0.11
   -7.71  -10.11   -3.83
   -5.42   -8.97   -6.88
   -6.66  -11.78   -9.50
   -2.94   -9.95   -2.58
   -8.18  -10.80   -4.91
   -2.27  -12.23    6.29
   -7.62   -7.59   -5.32
   -2.65  -10.02   -8.61
   -1.42   -9.43   -0.99
    1.90  -13.23    2.60
  -12.14   -7.78   -7.06
    4.82  -12.76   -8.41
   -6.00  -11.25    9.50
    3.86  -13.10    7.72
   -4.14   -8.77   -6.62
    4.25  -13.08    8.74
   -3.33   -9.58    4.96
    1.08  -13.67    4.76
[...]
POINT_DATA 2000
SCALARS radius float
LOOKUP_TABLE default
  0.500000000000000     
  0.500000000000000     
  0.500000000000000     
  0.500000000000000     
  0.500000000000000     
  0.500000000000000     
  0.500000000000000     
  0.500000000000000     
  0.500000000000000     
  0.500000000000000     
  0.500000000000000     
  0.500000000000000     
  0.500000000000000     
  0.500000000000000     
  0.500000000000000     
  0.500000000000000     
  0.500000000000000     
  0.500000000000000     
  0.500000000000000     
  0.500000000000000     
  0.500000000000000     
  0.500000000000000     
  0.500000000000000     
  0.500000000000000     
  0.500000000000000     
  0.500000000000000     
  0.500000000000000     
  0.500000000000000     
  0.500000000000000     
  0.500000000000000     
  0.500000000000000     
  0.500000000000000     
  0.500000000000000     
  0.500000000000000     
  0.500000000000000     
  0.500000000000000     
  0.500000000000000     
  0.500000000000000     
  0.500000000000000     
  0.500000000000000     
  0.500000000000000     
  0.500000000000000     
  0.500000000000000     
  0.500000000000000     
  0.500000000000000     
  0.500000000000000     
  0.500000000000000     
  0.500000000000000     
  0.500000000000000     
  0.500000000000000     
  0.500000000000000     
  0.500000000000000     
  0.500000000000000     
  0.500000000000000     
  0.500000000000000     
  0.500000000000000     
  0.500000000000000     
  0.500000000000000     
  0.500000000000000     
  0.500000000000000     
  0.500000000000000     
  0.500000000000000     
  0.500000000000000     
  0.500000000000000     
  0.500000000000000     
  0.500000000000000     
  0.500000000000000     
  0.500000000000000     
  0.500000000000000     
  0.500000000000000     
  0.500000000000000     
  0.500000000000000     
  0.500000000000000     
  0.500000000000000     
  0.500000000000000     
  0.500000000000000     
  0.500000000000000     
  0.500000000000000     
  0.500000000000000     
  0.500000000000000     
  0.500000000000000     
  0.500000000000000     
  0.500000000000000     
  0.500000000000000     
  0.500000000000000     
  0.500000000000000     
  0.500000000000000     
  0.500000000000000     
  0.500000000000000     
  0.500000000000000     
  0.500000000000000     
  0.500000000000000     
  0.500000000000000     
  0.500000000000000     
  0.500000000000000     
  0.500000000000000     
  0.500000000000000     
  0.500000000000000     
  0.500000000000000     
  0.500000000000000     
  0.500000000000000     
  0.500000000000000     
  0.500000000000000     
  0.500000000000000     
  0.500000000000000     
  0.500000000000000     
  0.500000000000000     
  0.500000000000000     
  0.500000000000000     
  0.500000000000000     
  0.500000000000000     
  0.500000000000000     
  0.500000000000000     
  0.500000000000000     
  0.500000000000000     
  0.500000000000000     
  0.500000000000000     
  0.500000000000000     
  0.500000000000000     
  0.500000000000000     
  0.500000000000000     
  0.500000000000000     
  0.500000000000000     
  0.500000000000000     
  0.500000000000000     
  0.500000000000000     
  0.500000000000000     
  0.500000000000000     
  0.500000000000000     
  0.500000000000000     
  0.500000000000000     
  0.500000000000000     
  0.500000000000000     
  0.500000000000000     
  0.500000000000000     
  0.500000000000000     
  0.500000000000000     
  0.500000000000000     
  0.500000000000000     
  0.500000000000000     
  0.500000000000000     
  0.500000000000000     
  0.500000000000000     
  0.500000000000000     
  0.500000000000000     
  0.500000000000000     
  0.500000000000000     
  0.500000000000000     
  0.500000000000000     
  0.500000000000000     
  0.500000000000000     
  0.500000000000000     
  0.500000000000000     
  0.500000000000000     
  0.500000000000000     
  0.500000000000000     
  0.500000000000000     
  0.500000000000000     
  0.500000000000000     
  0.500000000000000     
  0.500000000000000     
  0.500000000000000     
  0.500000000000000     
  0.500000000000000     
  0.500000000000000     
  0.500000000000000     
  0.500000000000000     
  0.500000000000000     
  0.500000000000000     
  0.500000000000000     
  0.500000000000000     
  0.500000000000000     
  0.500000000000000     
  0.500000000000000     
  0.500000000000000     
  0.500000000000000     
  0.500000000000000     
  0.500000000000000     
  0.500000000000000     
  0.500000000000000     
  0.500000000000000     
  0.500000000000000     
  0.500000000000000     
  0.500000000000000     
  0.500000000000000     
  0.500000000000000     
  0.500000000000000     
  0.500000000000000     
  0.500000000000000     
  0.500000000000000     
  0.500000000000000     
  0.500000000000000     
  0.500000000000000     
  0.500000000000000     
  0.500000000000000     
  0.500000000000000     
  0.500000000000000     
  0.500000000000000     
  0.500000000000000     
  0.500000000000000     
  0.500000000000000     
  0.500000000000000     
  0.500000000000000     
  0.500000000000000     
  0.500000000000000     
  0.500000000000000     
  0.500000000000000     
  0.500000000000000     
  0.500000000000000     
  0.500000000000000     
  0.500000000000000     
  0.500000000000000     
  0.500000000000000     
  0.500000000000000     
  0.500000000000000     
  0.500000000000000     
  0.500000000000000     
  0.500000000000000     
  0.500000000000000     
  0.500000000000000     
  0.500000000000000     
  0.500000000000000     
  0.500000000000000     
  0.500000000000000     
  0.500000000000000     
  0.500000000000000     
  0.500000000000000     
  0.500000000000000     
  0.500000000000000     
  0.500000000000000     
  0.500000000000000     
  0.500000000000000     
  0.500000000000000     
  0.500000000000000     
  0.500000000000000     
  0.500000000000000     
  0.500000000000000     
  0.500000000000000     
  0.500000000000000     
  0.500000000000000     
  0.500000000000000     
  0.500000000000000     
  0.500000000000000     
  0.500000000000000     
  0.500000000000000     
  0.500000000000000     
  0.500000000000000     
  0.500000000000000     
  0.500000000000000     
  0.500000000000000     
  0.500000000000000     
  0.500000000000000     
  0.500000000000000     
  0.500000000000000     
  0.500000000000000     
  0.500000000000000     
  0.500000000000000     
  0.500000000000000     
  0.500000000000000     
  0.500000000000000     
  0.500000000000000     
  0.500000000000000     
  0.500000000000000     
  0.500000000000000     
  0.500000000000000     
  0.500000000000000     
  0.500000000000000     
  0.500000000000000     
  0.500000000000000     
  0.500000000000000     
  0.500000000000000     
  0.500000000000000     
  0.500000000000000     
  0.500000000000000     
  0.500000000000000     
  0.500000000000000     
  0.500000000000000     
  0.500000000000000     
  0.500000000000000     
  0.500000000000000     
  0.500000000000000     
  0.500000000000000     
  0.500000000000000     
  0.500000000000000     
  0.500000000000000     
  0.500000000000000     
  0.500000000000000     
  0.500000000000000     
  0.500000000000000     
  0.500000000000000     
  0.500000000000000     
  0.500000000000000     
  0.500000000000000     
  0.500000000000000     
  0.500000000000000     
  0.500000000000000     
  0.500000000000000     
  0.500000000000000     
  0.500000000000000     
  0.500000000000000     
  0.500000000000000     
  0.500000000000000     
  0.500000000000000     
  0.500000000000000     
  0.500000000000000     
  0.500000000000000     
  0.500000000000000     
  0.500000000000000     
  0.500000000000000     
  0.500000000000000     
  0.500000000000000     
  0.500000000000000     
  0.500000000000000     
  0.500000000000000     
  0.500000000000000     
  0.500000000000000     
  0.500000000000000     
  0.500000000000000     
  0.500000000000000     
  0.500000000000000     
  0.500000000000000     
  0.500000000000000     
  0.500000000000000     
  0.500000000000000     
  0.500000000000000     
  0.500000000000000     
  0.500000000000000     
  0.500000000000000     
  0.500000000000000     
  0.500000000000000     
  0.500000000000000     
  0.500000000000000     
  0.500000000000000     
  0.500000000000000     
  0.500000000000000     
  0.500000000000000     
  0.500000000000000     
  0.500000000000000     
  0.500000000000000     
  0.500000000000000     
  0.500000000000000     
  0.500000000000000     
  0.500000000000000     
  0.500000000000000     
  0.500000000000000     
  0.500000000000000     
  0.500000000000000     
  0.500000000000000     
  0.500000000000000     
  0.500000000000000     
  0.500000000000000     
  0.500000000000000     
  0.500000000000000     
  0.500000000000000     
  0.500000000000000     
  0.500000000000000     
  0.500000000000000     
  0.500000000000000     
  0.500000000000000     
  0.500000000000000     
  0.500000000000000     
  0.500000000000000     
  0.500000000000000     
  0.500000000000000     
  0.500000000000000     
  0.500000000000000     
  0.500000000000000     
  0.500000000000000     
  0.500000000000000     
  0.500000000000000     
  0.500000000000000     
  0.500000000000000     
  0.500000000000000     
  0.500000000000000     
  0.500000000000000     
  0.500000000000000     
  0.500000000000000     
  0.500000000000000     
  0.500000000000000     
  0.500000000000000     
  0.500000000000000     
  0.500000000000000     
  0.500000000000000     
  0.500000000000000     
  0.500000000000000     
  0.500000000000000     
  0.500000000000000     
  0.500000000000000     
  0.500000000000000     
  0.500000000000000     
  0.500000000000000     
  0.500000000000000     
  0.500000000000000     
  0.500000000000000     
  0.500000000000000     
  0.500000000000000     
  0.500000000000000     
  0.500000000000000     
  0.500000000000000     
  0.500000000000000     
  0.500000000000000     
  0.500000000000000     
  0.500000000000000     
  0.500000000000000     
  0.500000000000000     
  0.500000000000000     
  0.500000000000000     
  0.500000000000000     
  0.500000000000000     
  0.500000000000000     
  0.500000000000000     
  0.500000000000000     
  0.500000000000000     
  0.500000000000000     
  0.500000000000000     
  0.500000000000000     
  0.500000000000000     
  0.500000000000000     
  0.500000000000000     
  0.500000000000000     
  0.500000000000000     
  0.500000000000000     
  0.500000000000000     
  0.500000000000000     
  0.500000000000000     
  0.500000000000000     
  0.500000000000000     
  0.500000000000000     
  0.500000000000000     
  0.500000000000000     
  0.500000000000000     
  0.500000000000000     
  0.500000000000000     
  0.500000000000000     
  0.500000000000000     
  0.500000000000000     
  0.500000000000000     
  0.500000000000000     
  0.500000000000000     
  0.500000000000000     
  0.500000000000000     
  0.500000000000000     
  0.500000000000000     
  0.500000000000000     
  0.500000000000000     
  0.500000000000000     
  0.500000000000000     
  0.500000000000000     
  0.500000000000000     
  0.500000000000000     
  0.500000000000000     
  0.500000000000000     
  0.500000000000000     
  0.500000000000000     
  0.500000000000000     
  0.500000000000000     
  0.500000000000000     
  0.500000000000000     
  0.500000000000000     
  0.500000000000000     
  0.500000000000000     
  0.500000000000000     
  0.500000000000000     
  0.500000000000000     
  0.500000000000000     
  0.500000000000000     
  0.500000000000000     
  0.500000000000000     
  0.500000000000000     
  0.500000000000000     
  0.500000000000000     
  0.500000000000000     
  0.500000000000000     
  0.500000000000000     
  0.500000000000000     
  0.500000000000000     
  0.500000000000000     
  0.500000000000000     
  0.500000000000000     
  0.500000000000000     
  0.500000000000000     
  0.500000000000000     
  0.500000000000000     
  0.500000000000000     
  0.500000000000000     
  0.500000000000000     
  0.500000000000000     
  0.500000000000000     
  0.500000000000000     
  0.500000000000000     
  0.500000000000000     
  0.500000000000000     
  0.500000000000000     
  0.500000000000000     
  0.500000000000000     
  0.500000000000000     
  0.500000000000000     
  0.500000000000000     
  0.500000000000000     
  0.500000000000000     
  0.500000000000000     
  0.500000000000000     
  0.500000000000000     
  0.500000000000000     
  0.500000000000000     
  0.500000000000000     
  0.500000000000000     
  0.500000000000000     
  0.500000000000000     
  0.500000000000000     
  0.500000000000000     
  0.500000000000000     
  0.500000000000000     
  0.500000000000000     
  0.500000000000000     
  0.500000000000000     
  0.500000000000000     
  0.500000000000000     
  0.500000000000000     
  0.500000000000000     
  0.500000000000000     
  0.500000000000000     
  0.500000000000000     
  0.500000000000000     
  0.500000000000000     
  0.500000000000000     
  0.500000000000000     
  0.500000000000000     
  0.500000000000000     
  0.500000000000000     
  0.500000000000000     
  0.500000000000000     
  0.500000000000000     
  0.500000000000000     
  0.500000000000000     
  0.500000000000000     
  0.500000000000000     
  0.500000000000000     
  0.500000000000000     
  0.500000000000000     
  0.500000000000000     
  0.500000000000000     
  0.500000000000000     
  0.500000000000000     
  0.500000000000000     
  0.500000000000000     
  0.500000000000000     
  0.500000000000000     
  0.500000000000000     
  0.500000000000000     
  0.500000000000000     
  0.500000000000000     
  0.500000000000000     
  0.500000000000000     
  0.500000000000000     
  0.500000000000000     
  0.500000000000000     
  0.500000000000000     
  0.500000000000000     
  0.500000000000000     
  0.500000000000000     
  0.500000000000000     
  0.500000000000000     
  0.500000000000000     
  0.500000000000000     
  0.500000000000000     
  0.500000000000000     
  0.500000000000000     
  0.500000000000000     
  0.500000000000000     
  0.500000000000000     
  0.500000000000000     
  0.500000000000000     
  0.500000000000000     
  0.500000000000000     
  0.500000000000000     
  0.500000000000000     
  0.500000000000000     
  0.500000000000000     
  0.500000000000000     
  0.500000000000000     
  0.500000000000000     
  0.500000000000000     
  0.500000000000000     
  0.500000000000000     
  0.500000000000000     
  0.500000000000000     
  0.500000000000000     
  0.500000000000000     
  0.500000000000000     
  0.500000000000000     
  0.500000000000000     
  0.500000000000000     
  0.500000000000000     
  0.500000000000000     
  0.500000000000000     
  0.500000000000000     
  0.500000000000000     
  0.500000000000000     
  0.500000000000000     
  0.500000000000000     
  0.500000000000000     
  0.500000000000000     
  0.500000000000000     
  0.500000000000000     
  0.500000000000000     
  0.500000000000000     
  0.500000000000000     
  0.500000000000000     
  0.500000000000000     
  0.500000000000000     
  0.500000000000000     
  0.500000000000000     
  0.500000000000000     
  0.500000000000000     
  0.500000000000000     
  0.500000000000000     
  0.500000000000000     
  0.500000000000000     
  0.500000000000000     
  0.500000000000000     
  0.500000000000000     
  0.500000000000000     
  0.500000000000000     
  0.500000000000000     
  0.500000000000000     
  0.500000000000000     
  0.500000000000000     
  0.500000000000000     
  0.500000000000000     
  0.500000000000000     
  0.500000000000000     
  0.500000000000000     
  0.500000000000000     
  0.500000000000000     
  0.500000000000000     
  0.500000000000000     
  0.500000000000000     
  0.500000000000000     
  0.500000000000000     
  0.500000000000000     
  0.500000000000000     
  0.500000000000000     
  0.500000000000000     
  0.500000000000000     
  0.500000000000000     
  0.500000000000000     
  0.500000000000000     
  0.500000000000000     
  0.500000000000000     
  0.500000000000000     
  0.500000000000000     
  0.500000000000000     
  0.500000000000000     
  0.500000000000000     
  0.500000000000000     
  0.500000000000000     
  0.500000000000000     
  0.500000000000000     
  0.500000000000000     
  0.500000000000000     
  0.500000000000000     
  0.500000000000000     
  0.500000000000000     
  0.500000000000000     
  0.500000000000000     
  0.500000000000000     
  0.500000000000000     
  0.500000000000000     
  0.500000000000000     
  0.500000000000000     
  0.500000000000000     
  0.500000000000000     
  0.500000000000000     
  0.500000000000000     
  0.500000000000000     
  0.500000000000000     
  0.500000000000000     
  0.500000000000000     
  0.500000000000000     
  0.500000000000000     
  0.500000000000000     
  0.500000000000000     
  0.500000000000000     
  0.500000000000000     
  0.500000000000000     
  0.500000000000000     
  0.500000000000000     
  0.500000000000000     
  0.500000000000000     
  0.500000000000000     
  0.500000000000000     
  0.500000000000000     
  0.500000000000000     
  0.500000000000000     
  0.500000000000000     
  0.500000000000000     
  0.500000000000000     
  0.500000000000000     
  0.500000000000000     
  0.500000000000000     
  0.500000000000000     
  0.500000000000000     
  0.500000000000000     
  0.500000000000000     
  0.500000000000000     
  0.500000000000000     
  0.500000000000000     
  0.500000000000000     
  0.500000000000000     
  0.500000000000000     
  0.500000000000000     
  0.500000000000000     
  0.500000000000000     
  0.500000000000000     
  0.500000000000000     
  0.500000000000000     
  0.500000000000000     
  0.500000000000000     
  0.500000000000000     
  0.500000000000000     
  0.500000000000000     
  0.500000000000000     
  0.500000000000000     
  0.500000000000000     
  0.500000000000000     
  0.500000000000000     
  0.500000000000000     
  0.500000000000000     
  0.500000000000000     
  0.500000000000000     
  0.500000000000000     
  0.500000000000000     
  0.500000000000000     
  0.500000000000000     
  0.500000000000000     
  0.500000000000000     
  0.500000000000000     
  0.500000000000000     
  0.500000000000000     
  0.500000000000000     
  0.500000000000000     
  0.500000000000000     
  0.500000000000000     
  0.500000000000000     
  0.500000000000000     
  0.500000000000000     
  0.500000000000000     
  0.500000000000000     
  0.500000000000000     
  0.500000000000000     
  0.500000000000000     
  0.500000000000000     
  0.500000000000000     
  0.500000000000000     
  0.500000000000000     
  0.500000000000000     
  0.500000000000000     
  0.500000000000000     
  0.500000000000000     
  0.500000000000000     
  0.500000000000000     
  0.500000000000000     
  0.500000000000000     
  0.500000000000000     
  0.500000000000000     
  0.500000000000000     
  0.500000000000000     
  0.500000000000000     
  0.500000000000000     
  0.500000000000000     
  0.500000000000000     
  0.500000000000000     
  0.500000000000000     
  0.500000000000000     
  0.500000000000000     
  0.500000000000000     
  0.500000000000000     
  0.500000000000000     
  0.500000000000000     
  0.500000000000000     
  0.500000000000000     
  0.500000000000000     
  0.500000000000000     
  0.500000000000000     
  0.500000000000000     
  0.500000000000000     
  0.500000000000000     
  0.500000000000000     
  0.500000000000000     
  0.500000000000000     
  0.500000000000000     
  0.500000000000000     
  0.500000000000000     
  0.500000000000000     
  0.500000000000000     
  0.500000000000000     