# vtk DataFile Version 5.1
Data.vtk
ASCII
DATASET UNSTRUCTURED_GRID
 
POINTS 2000 float
   -7.68  -12.03   -1.53
    2.03  -14.36    1.37
   -7.46   -9.47    1.84
  -11.60   -7.98   -1.04
    1.38  -13.84    8.56
   -7.82  -11.19   -9.50
   -8.65  -11.63   -8.42
   -1.80  -11.05   -8.33
    3.60  -13.27   -4.91
   -4.77  -11.93   -0.82
    3.46  -12.54   -4.12
    1.89  -13.55   -7.20
   -6.45  -12.90   -3.42
    0.13  -13.12    4.04
    0.43  -10.80   -0.87
   -4.41  -13.81    5.01
    4.15  -12.99    4.58
  -10.30   -9.21    8.04
   -9.72   -7.88    8.04
   -0.84  -10.65   -5.09
   -1.99  -10.42   -0.63
  -13.39   -5.55    5.26
   -5.71   -9.34   -8.38
   -1.84   -9.45   -6.02
   -4.39  -12.79   -1.80
    3.02  -12.48   -1.36
    1.28  -11.89    5.51
   -3.36  -11.01    8.51
    5.03  -12.75   -3.60
   -0.04  -13.59    9.50
   -6.72   -8.79   -5.07
   -0.29  -14.49    0.40
  -10.95   -7.78    9.23
    1.04  -13.52   -2.52
   -5.96   -8.69   -3.06
  -10.83   -6.67    8.39
    2.24  -14.33    8.45
   -1.64  -11.38    3.84
    5.50  -11.68    0.56
   -0.37  -13.62    2.82
   -8.47  -11.72   -3.04
   -6.93   -8.50   -1.62
   -0.46  -12.73   -5.73
   -6.34  -11.92    0.62
    1.60  -13.54   -8.57
   -5.50  -13.42    5.10
  -12.00   -8.02    8.31
   -4.91  -10.31   -4.82
    1.98  -13.72   -0.63
   -5.78   -8.72   -5.73
  -12.50   -5.31   -8.26
   -0.32  -11.72    7.74
   -0.66  -14.49    9.50
    0.63  -13.00    1.46
    2.33  -14.29    5.67
    1.49  -13.46   -1.61
   -0.95  -14.47   -7.62
    0.46  -12.18    2.02
    0.36  -11.06    0.49
   -6.10  -10.42   -8.44
    4.09  -12.23   -2.03
   -1.05  -11.52   -9.50
   -7.87  -10.13    8.54
  -10.00   -7.13    1.25
   -6.75  -12.83    0.40
   -0.82  -11.92    1.30
  -10.52   -6.80   -7.63
    0.55  -14.49    3.85
  -12.58   -7.02   -8.29
   -2.22  -13.45   -2.74
    6.31  -13.05    4.88
    2.84  -11.86   -7.29
   -9.11   -9.90   -7.67
    2.78  -14.23    4.46
   -9.04  -11.33    9.49
    4.06  -13.12   -8.60
   -7.35  -12.50    8.50
   -9.58   -8.89   -6.49
   -1.00  -12.91    1.85
   -2.14  -14.34    0.91
   -5.09   -9.49    8.40
  -10.13  -10.37    9.50
   -8.54  -10.09   -4.39
   -9.54  -10.92   -9.48
   -5.98   -9.70   -5.82
   -3.89  -12.30   -7.78
   -2.12   -9.93    1.35
   -1.90  -14.37   -8.21
    4.92  -13.64    0.66
   -2.25  -12.61    6.15
    1.44  -14.42   -0.08
   -2.98   -9.00   -6.29
   -3.84  -13.98   -8.14
    4.16  -13.38    9.50
  -11.44   -8.86    9.49
   -0.66  -14.49   -3.17
   -2.45  -10.49    2.90
    1.66  -12.59    4.73
   -9.82   -9.40   -5.26
    5.01  -12.20   -1.61
  -12.29   -7.36    1.94
    3.15  -14.00   -8.54
    3.96  -13.95    1.14
   -1.28  -14.44    8.66
    2.08  -12.42    0.97
   -6.60  -12.91   -9.29
  -11.36   -8.83    4.55
    1.54  -14.42   -7.73
   -4.91   -9.41    5.46
   -5.66  -10.52    2.74
    5.00  -13.61    9.00
   -4.79   -9.94   -0.77
   -8.50  -11.75   -2.04
   -7.67  -11.52   -7.71
  -10.19  -10.31    5.54
   -4.08  -13.10   -8.56
    1.27  -11.22    0.09
    0.94  -13.77   -6.49
  -11.74   -6.03    4.53
   -4.73  -13.71    7.80
   -9.34   -8.77    7.07
   -3.96  -12.17    9.41
    1.86  -12.62    8.61
    3.52  -14.07    3.70
   -1.88  -14.38   -1.97
   -0.30  -14.49   -4.38
  -10.23   -8.60   -5.70
   -2.52   -9.73    2.25
   -6.96   -9.14   -7.73
   -7.82   -8.62   -7.77
   -4.79  -11.84   -3.47
    6.01  -12.87    3.53
    1.15  -14.45   -3.67
    0.73  -14.48   -0.78
    0.50  -12.24   -7.65
   -7.74   -9.30    7.69
   -3.94   -9.34   -7.24
   -7.02  -10.52   -5.79
   -9.92   -7.61    9.50
  -10.31  -10.12    0.24
   -3.06  -14.17   -0.68
   -7.15   -8.46    3.22
    0.13  -12.18   -6.64
   -0.16  -14.48    7.83
    3.21  -13.29    4.31
   -3.62   -9.77    5.61
   -2.63  -11.32    5.50
  -11.40   -7.51   -8.46
   -6.21   -9.82   -7.65
   -3.21  -12.24   -8.52
   -2.06  -13.59    7.21
    3.01  -13.46   -1.53
    0.78  -12.23    3.39
    3.11  -12.47   -5.26
   -4.17   -8.79   -6.43
   -3.99  -11.03    2.20
   -3.12  -12.49    1.92
   -7.24  -12.56    6.72
    2.93  -12.48    8.27
  -11.57   -8.57    7.20
    1.09  -14.46   -9.38
  -12.05   -8.06    9.45
  -10.17   -7.71   -7.41
   -9.53  -10.82    3.87
   -5.68  -12.55   -8.56
    4.99  -12.73    0.24
   -2.44  -10.37   -2.41
   -5.42   -8.88   -6.88
   -3.27  -14.13   -3.57
    0.85  -12.92   -7.00
   -9.70  -10.78    1.63
   -2.04  -12.55   -6.77
   -7.58  -10.27    7.54
   -0.09  -13.83   -8.00
   -4.33  -10.44    5.25
   -1.37  -14.44    3.36
   -2.94   -9.90    8.09
   -1.36  -13.53    9.50
    4.77  -12.76   -5.23
   -8.01  -10.88   -0.95
    3.50  -11.51   -2.39
   -5.78  -13.27    3.90
   -8.22  -11.95    2.49
   -2.96  -12.01   -7.52
   -1.10  -11.11    9.44
   -8.00  -12.08   -5.21
    1.03  -12.00   -2.35
   -9.74   -7.24   -5.89
    4.00  -11.64    3.61
   -6.86   -9.99   -2.99
   -1.86  -11.93   -1.04
   -8.16  -10.40    5.33
   -6.15   -8.36    4.35
   -0.81  -11.34   -8.54
   -7.14  -12.60   -5.44
  -12.58   -7.19    9.50
   -1.96  -13.42   -8.51
  -12.90   -5.59   -5.59
   -8.72   -8.75   -1.73
    0.43  -13.73   -0.15
   -3.19  -12.54    5.79
   -8.77   -7.98    7.31
   -7.89  -10.97   -8.51
   -8.10   -9.89   -1.05
   -8.02  -12.07    5.34
   -2.69  -10.53   -8.16
   -5.12  -13.56   -6.01
    3.44  -14.09    8.87
   -2.11  -13.41   -9.50
    2.67  -12.55   -6.58
    0.74  -13.11    6.65
   -4.52   -9.42   -8.06
    0.93  -14.11    6.81
  -11.51   -7.53   -7.08
   -5.58  -13.29   -6.94
    1.65  -13.46    2.01
    3.37  -14.10    2.14
   -6.29   -8.56    8.50
    1.26  -12.78   -8.01
    2.62  -11.06   -4.04
   -1.99  -12.89    5.17
   -8.58  -11.69    7.35
    3.59  -11.70   -3.37
   -1.29  -11.32   -2.04
   -3.75   -9.59    6.61
   -2.09   -9.98    7.57
   -0.76  -11.68   -6.39
  -10.86   -8.49   -3.17
    3.96  -12.49    8.36
    0.06  -11.92   -8.66
   -5.38   -9.95   -2.30
  -10.80   -9.68    6.03
   -3.51  -10.92   -6.53
    0.05  -12.96    5.87
    2.43  -13.02   -8.22
    1.44  -11.19   -0.90
    2.00  -12.31   -1.69
   -5.26  -13.49    1.83
   -4.01  -13.11    3.23
   -1.46  -11.48   -5.71
    5.75  -13.31    1.71
  -11.45   -7.26    6.86
    1.73  -12.61   -8.94
   -3.78  -10.52   -8.79
   -5.08  -13.58    6.88
    3.08  -12.24    1.03
   -3.25  -13.15   -9.50
   -0.45  -14.48    3.79
   -2.42  -10.84    8.21
    0.58  -11.06    7.60
   -7.52   -9.29   -2.51
    0.61  -13.36   -8.55
   -1.30  -12.63   -8.59
   -5.93   -9.30    5.57
  -13.47   -5.35    8.29
  -11.04   -9.13    2.93
   -6.04   -8.74   -7.65
  -10.62   -7.38    5.94
    0.57  -12.77   -5.97
    3.01  -14.18   -2.76
   -7.91   -9.78   -8.45
   -1.07  -13.49   -5.95
    4.18  -13.88    5.02
   -5.56  -13.39    8.53
    3.10  -11.64   -4.70
  -10.03   -7.44   -4.36
   -9.54   -8.76    2.86
    5.97  -13.21    8.83
   -1.33  -11.55   -7.24
   -1.11  -13.26   -9.50
    1.69  -12.76   -0.62
   -6.69  -11.03    0.89
    1.01  -11.66   -8.88
  -11.66   -6.81   -7.77
   -6.31  -11.95   -7.11
    0.46  -11.89    6.09
   -3.64  -13.00    6.77
  -12.96   -6.42    8.98
   -7.83  -12.21   -8.44
   -2.63  -10.85    0.15
   -5.07  -10.08    4.67
   -6.51   -8.52    5.31
   -7.99  -12.06   -6.87
   -4.23   -9.13    8.77
    0.48  -12.22   -0.89
   -4.65  -13.73    8.80
   -4.23  -11.41   -1.98
   -7.26  -11.58    8.11
   -7.85  -12.19   -9.48
  -10.73   -9.76    4.81
   -4.20  -10.12    0.61
   -7.72  -12.26    7.55
    1.70  -12.73   -2.55
   -4.69  -12.83   -7.21
   -6.36  -10.06    9.50
    5.29  -12.59   -2.49
  -12.72   -6.40   -6.71
   -1.29  -13.71    6.57
   -7.71  -10.50    6.40
   -5.97   -9.39   -3.77
  -12.39   -7.52   -1.46
  -12.56   -6.89    7.44
   -0.94  -12.52    3.27
    4.86  -13.66   -8.33
   -6.96  -12.66   -1.10
   -5.97   -8.77    6.51
   -2.51  -13.59    6.32
   -2.73   -9.76   -3.75
    0.68  -14.48   -4.56
   -7.21  -11.52    9.26
   -9.17  -11.22   -6.54
   -0.96  -12.85    5.58
   -0.25  -14.50   -0.60
    2.36  -13.00   -3.24
   -8.69   -8.64   -9.31
  -11.84   -8.24   -7.80
   -6.66   -8.67   -9.42
   -0.70  -13.62   -0.42
   -1.13   -9.90    3.12
    1.53  -12.87   -6.24
   -3.42   -9.87   -7.93
   -8.76  -11.55   -9.50
   -7.65   -8.32   -2.30
   -4.00  -10.23   -1.59
    1.05  -14.45   -2.16
    1.74  -14.39    2.35
    2.99  -14.18    1.06
  -11.65   -6.44    9.27
   -5.02   -9.99   -5.81
   -2.22  -13.57    4.44
   -2.97  -14.19    0.31
  -10.02  -10.38   -2.65
   -3.72   -9.18    2.04
   -2.24  -11.19   -2.94
   -0.62  -10.48    5.53
    1.94  -13.53   -3.98
   -6.27  -11.99    9.50
    5.39  -12.48    5.60
   -1.75  -11.23    0.46
   -3.37  -14.10   -1.64
   -1.28  -14.41   -4.64
   -4.97   -9.78   -6.85
  -12.37   -6.66    6.05
   -0.17  -12.25    5.20
   -4.44   -9.86   -9.34
   -0.25  -12.86   -8.57
   -4.12  -13.90    6.67
   -0.16  -14.48   -6.37
   -3.79  -12.33   -6.50
    2.42  -12.26    5.29
    6.18  -12.37   -5.65
   -2.82  -10.27   -9.50
    1.62  -11.35   -1.88
    6.74  -12.84    2.84
   -6.32  -11.39   -5.39
   -6.36  -13.03    6.80
  -11.57   -8.73   -9.50
   -1.04  -10.57    3.86
   -0.27  -13.61    7.07
    3.28  -13.32   -6.39
    3.22  -11.59    6.18
   -2.40   -9.82    5.92
   -3.93  -13.96   -7.13
   -8.78   -8.18    9.50
  -11.14   -7.71    2.93
    2.84  -14.22   -0.72
    3.13  -13.17    7.55
   -3.63   -9.33   -3.81
   -5.59  -13.38   -3.11
   -3.70  -13.11    7.76
   -7.96  -10.64   -6.87
   -9.83   -8.49   -9.49
  -11.41   -8.95   -7.20
    1.22  -11.57    9.19
    3.43  -14.07   -9.50
    2.02  -11.12    2.06
  -12.18   -5.44    9.49
   -2.93  -14.20    4.01
   -0.24  -12.83   -2.67
  -10.93   -9.50   -9.45
   -4.49   -9.22   -5.44
    2.65  -13.46   -5.13
    1.92  -11.65   -2.97
   -3.14  -12.33    7.44
    2.89  -13.36   -7.34
   -5.83   -9.25   -9.49
   -2.04  -14.36   -0.97
  -10.50  -10.00    3.04
   -1.53  -11.34   -4.72
  -13.03   -5.14   -9.32
   -0.61  -10.53    7.93
  -13.23   -5.60    9.49
   -5.00  -12.93   -9.49
   -9.91   -9.34    9.01
   -1.86  -13.41    8.64
  -11.52   -7.85    4.49
[...]
POINT_DATA 2000
SCALARS radius float
LOOKUP_TABLE default
  0.500000000000000     
  0.500000000000000     
  0.500000000000000     
  0.500000000000000     
  0.500000000000000     
  0.500000000000000     
  0.500000000000000     
  0.500000000000000     
  0.500000000000000     
  0.500000000000000     
  0.500000000000000     
  0.500000000000000     
  0.500000000000000     
  0.500000000000000     
  0.500000000000000     
  0.500000000000000     
  0.500000000000000     
  0.500000000000000     
  0.500000000000000     
  0.500000000000000     
  0.500000000000000     
  0.500000000000000     
  0.500000000000000     
  0.500000000000000     
  0.500000000000000     
  0.500000000000000     
  0.500000000000000     
  0.500000000000000     
  0.500000000000000     
  0.500000000000000     
  0.500000000000000     
  0.500000000000000     
  0.500000000000000     
  0.500000000000000     
  0.500000000000000     
  0.500000000000000     
  0.500000000000000     
  0.500000000000000     
  0.500000000000000     
  0.500000000000000     
  0.500000000000000     
  0.500000000000000     
  0.500000000000000     
  0.500000000000000     
  0.500000000000000     
  0.500000000000000     
  0.500000000000000     
  0.500000000000000     
  0.500000000000000     
  0.500000000000000     
  0.500000000000000     
  0.500000000000000     
  0.500000000000000     
  0.500000000000000     
  0.500000000000000     
  0.500000000000000     
  0.500000000000000     
  0.500000000000000     
  0.500000000000000     
  0.500000000000000     
  0.500000000000000     
  0.500000000000000     
  0.500000000000000     
  0.500000000000000     
  0.500000000000000     
  0.500000000000000     
  0.500000000000000     
  0.500000000000000     
  0.500000000000000     
  0.500000000000000     
  0.500000000000000     
  0.500000000000000     
  0.500000000000000     
  0.500000000000000     
  0.500000000000000     
  0.500000000000000     
  0.500000000000000     
  0.500000000000000     
  0.500000000000000     
  0.500000000000000     
  0.500000000000000     
  0.500000000000000     
  0.500000000000000     
  0.500000000000000     
  0.500000000000000     
  0.500000000000000     
  0.500000000000000     
  0.500000000000000     
  0.500000000000000     
  0.500000000000000     
  0.500000000000000     
  0.500000000000000     
  0.500000000000000     
  0.500000000000000     
  0.500000000000000     
  0.500000000000000     
  0.500000000000000     
  0.500000000000000     
  0.500000000000000     
  0.500000000000000     
  0.500000000000000     
  0.500000000000000     
  0.500000000000000     
  0.500000000000000     
  0.500000000000000     
  0.500000000000000     
  0.500000000000000     
  0.500000000000000     
  0.500000000000000     
  0.500000000000000     
  0.500000000000000     
  0.500000000000000     
  0.500000000000000     
  0.500000000000000     
  0.500000000000000     
  0.500000000000000     
  0.500000000000000     
  0.500000000000000     
  0.500000000000000     
  0.500000000000000     
  0.500000000000000     
  0.500000000000000     
  0.500000000000000     
  0.500000000000000     
  0.500000000000000     
  0.500000000000000     
  0.500000000000000     
  0.500000000000000     
  0.500000000000000     
  0.500000000000000     
  0.500000000000000     
  0.500000000000000     
  0.500000000000000     
  0.500000000000000     
  0.500000000000000     
  0.500000000000000     
  0.500000000000000     
  0.500000000000000     
  0.500000000000000     
  0.500000000000000     
  0.500000000000000     
  0.500000000000000     
  0.500000000000000     
  0.500000000000000     
  0.500000000000000     
  0.500000000000000     
  0.500000000000000     
  0.500000000000000     
  0.500000000000000     
  0.500000000000000     
  0.500000000000000     
  0.500000000000000     
  0.500000000000000     
  0.500000000000000     
  0.500000000000000     
  0.500000000000000     
  0.500000000000000     
  0.500000000000000     
  0.500000000000000     
  0.500000000000000     
  0.500000000000000     
  0.500000000000000     
  0.500000000000000     
  0.500000000000000     
  0.500000000000000     
  0.500000000000000     
  0.500000000000000     
  0.500000000000000     
  0.500000000000000     
  0.500000000000000     
  0.500000000000000     
  0.500000000000000     
  0.500000000000000     
  0.500000000000000     
  0.500000000000000     
  0.500000000000000     
  0.500000000000000     
  0.500000000000000     
  0.500000000000000     
  0.500000000000000     
  0.500000000000000     
  0.500000000000000     
  0.500000000000000     
  0.500000000000000     
  0.500000000000000     
  0.500000000000000     
  0.500000000000000     
  0.500000000000000     
  0.500000000000000     
  0.500000000000000     
  0.500000000000000     
  0.500000000000000     
  0.500000000000000     
  0.500000000000000     
  0.500000000000000     
  0.500000000000000     
  0.500000000000000     
  0.500000000000000     
  0.500000000000000     
  0.500000000000000     
  0.500000000000000     
  0.500000000000000     
  0.500000000000000     
  0.500000000000000     
  0.500000000000000     
  0.500000000000000     
  0.500000000000000     
  0.500000000000000     
  0.500000000000000     
  0.500000000000000     
  0.500000000000000     
  0.500000000000000     
  0.500000000000000     
  0.500000000000000     
  0.500000000000000     
  0.500000000000000     
  0.500000000000000     
  0.500000000000000     
  0.500000000000000     
  0.500000000000000     
  0.500000000000000     
  0.500000000000000     
  0.500000000000000     
  0.500000000000000     
  0.500000000000000     
  0.500000000000000     
  0.500000000000000     
  0.500000000000000     
  0.500000000000000     
  0.500000000000000     
  0.500000000000000     
  0.500000000000000     
  0.500000000000000     
  0.500000000000000     
  0.500000000000000     
  0.500000000000000     
  0.500000000000000     
  0.500000000000000     
  0.500000000000000     
  0.500000000000000     
  0.500000000000000     
  0.500000000000000     
  0.500000000000000     
  0.500000000000000     
  0.500000000000000     
  0.500000000000000     
  0.500000000000000     
  0.500000000000000     
  0.500000000000000     
  0.500000000000000     
  0.500000000000000     
  0.500000000000000     
  0.500000000000000     
  0.500000000000000     
  0.500000000000000     
  0.500000000000000     
  0.500000000000000     
  0.500000000000000     
  0.500000000000000     
  0.500000000000000     
  0.500000000000000     
  0.500000000000000     
  0.500000000000000     
  0.500000000000000     
  0.500000000000000     
  0.500000000000000     
  0.500000000000000     
  0.500000000000000     
  0.500000000000000     
  0.500000000000000     
  0.500000000000000     
  0.500000000000000     
  0.500000000000000     
  0.500000000000000     
  0.500000000000000     
  0.500000000000000     
  0.500000000000000     
  0.500000000000000     
  0.500000000000000     
  0.500000000000000     
  0.500000000000000     
  0.500000000000000     
  0.500000000000000     
  0.500000000000000     
  0.500000000000000     
  0.500000000000000     
  0.500000000000000     
  0.500000000000000     
  0.500000000000000     
  0.500000000000000     
  0.500000000000000     
  0.500000000000000     
  0.500000000000000     
  0.500000000000000     
  0.500000000000000     
  0.500000000000000     
  0.500000000000000     
  0.500000000000000     
  0.500000000000000     
  0.500000000000000     
  0.500000000000000     
  0.500000000000000     
  0.500000000000000     
  0.500000000000000     
  0.500000000000000     
  0.500000000000000     
  0.500000000000000     
  0.500000000000000     
  0.500000000000000     
  0.500000000000000     
  0.500000000000000     
  0.500000000000000     
  0.500000000000000     
  0.500000000000000     
  0.500000000000000     
  0.500000000000000     
  0.500000000000000     
  0.500000000000000     
  0.500000000000000     
  0.500000000000000     
  0.500000000000000     
  0.500000000000000     
  0.500000000000000     
  0.500000000000000     
  0.500000000000000     
  0.500000000000000     
  0.500000000000000     
  0.500000000000000     
  0.500000000000000     
  0.500000000000000     
  0.500000000000000     
  0.500000000000000     
  0.500000000000000     
  0.500000000000000     
  0.500000000000000     
  0.500000000000000     
  0.500000000000000     
  0.500000000000000     
  0.500000000000000     
  0.500000000000000     
  0.500000000000000     
  0.500000000000000     
  0.500000000000000     
  0.500000000000000     
  0.500000000000000     
  0.500000000000000     
  0.500000000000000     
  0.500000000000000     
  0.500000000000000     
  0.500000000000000     
  0.500000000000000     
  0.500000000000000     
  0.500000000000000     
  0.500000000000000     
  0.500000000000000     
  0.500000000000000     
  0.500000000000000     
  0.500000000000000     
  0.500000000000000     
  0.500000000000000     
  0.500000000000000     
  0.500000000000000     
  0.500000000000000     
  0.500000000000000     
  0.500000000000000     
  0.500000000000000     
  0.500000000000000     
  0.500000000000000     
  0.500000000000000     
  0.500000000000000     
  0.500000000000000     
  0.500000000000000     
  0.500000000000000     
  0.500000000000000     
  0.500000000000000     
  0.500000000000000     
  0.500000000000000     
  0.500000000000000     
  0.500000000000000     
  0.500000000000000     
  0.500000000000000     
  0.500000000000000     
  0.500000000000000     
  0.500000000000000     
  0.500000000000000     
  0.500000000000000     
  0.500000000000000     
  0.500000000000000     
  0.500000000000000     
  0.500000000000000     
  0.500000000000000     
  0.500000000000000     
  0.500000000000000     
  0.500000000000000     
  0.500000000000000     
  0.500000000000000     
  0.500000000000000     
  0.500000000000000     
  0.500000000000000     
  0.500000000000000     
  0.500000000000000     
  0.500000000000000     
  0.500000000000000     
  0.500000000000000     
  0.500000000000000     
  0.500000000000000     
  0.500000000000000     
  0.500000000000000     
  0.500000000000000     
  0.500000000000000     
  0.500000000000000     
  0.500000000000000     
  0.500000000000000     
  0.500000000000000     
  0.500000000000000     
  0.500000000000000     
  0.500000000000000     
  0.500000000000000     
  0.500000000000000     
  0.500000000000000     
  0.500000000000000     
  0.500000000000000     
  0.500000000000000     
  0.500000000000000     
  0.500000000000000     
  0.500000000000000     
  0.500000000000000     
  0.500000000000000     
  0.500000000000000     
  0.500000000000000     
  0.500000000000000     
  0.500000000000000     
  0.500000000000000     
  0.500000000000000     
  0.500000000000000     
  0.500000000000000     
  0.500000000000000     
  0.500000000000000     
  0.500000000000000     
  0.500000000000000     
  0.500000000000000     
  0.500000000000000     
  0.500000000000000     
  0.500000000000000     
  0.500000000000000     
  0.500000000000000     
  0.500000000000000     
  0.500000000000000     
  0.500000000000000     
  0.500000000000000     
  0.500000000000000     
  0.500000000000000     
  0.500000000000000     
  0.500000000000000     
  0.500000000000000     
  0.500000000000000     
  0.500000000000000     
  0.500000000000000     
  0.500000000000000     
  0.500000000000000     
  0.500000000000000     
  0.500000000000000     
  0.500000000000000     
  0.500000000000000     
  0.500000000000000     
  0.500000000000000     
  0.500000000000000     
  0.500000000000000     
  0.500000000000000     
  0.500000000000000     
  0.500000000000000     
  0.500000000000000     
  0.500000000000000     
  0.500000000000000     
  0.500000000000000     
  0.500000000000000     
  0.500000000000000     
  0.500000000000000     
  0.500000000000000     
  0.500000000000000     
  0.500000000000000     
  0.500000000000000     
  0.500000000000000     
  0.500000000000000     
  0.500000000000000     
  0.500000000000000     
  0.500000000000000     
  0.500000000000000     
  0.500000000000000     
  0.500000000000000     
  0.500000000000000     
  0.500000000000000     
  0.500000000000000     
  0.500000000000000     
  0.500000000000000     
  0.500000000000000     
  0.500000000000000     
  0.500000000000000     
  0.500000000000000     
  0.500000000000000     
  0.500000000000000     
  0.500000000000000     
  0.500000000000000     
  0.500000000000000     
  0.500000000000000     
  0.500000000000000     
  0.500000000000000     
  0.500000000000000     
  0.500000000000000     
  0.500000000000000     
  0.500000000000000     
  0.500000000000000     
  0.500000000000000     
  0.500000000000000     
  0.500000000000000     
  0.500000000000000     
  0.500000000000000     
  0.500000000000000     
  0.500000000000000     
  0.500000000000000     
  0.500000000000000     
  0.500000000000000     
  0.500000000000000     
  0.500000000000000     
  0.500000000000000     
  0.500000000000000     
  0.500000000000000     
  0.500000000000000     
  0.500000000000000     
  0.500000000000000     
  0.500000000000000     
  0.500000000000000     
  0.500000000000000     
  0.500000000000000     
  0.500000000000000     
  0.500000000000000     
  0.500000000000000     
  0.500000000000000     
  0.500000000000000     
  0.500000000000000     
  0.500000000000000     
  0.500000000000000     
  0.500000000000000     
  0.500000000000000     
  0.500000000000000     
  0.500000000000000     
  0.500000000000000     
  0.500000000000000     
  0.500000000000000     
  0.500000000000000     
  0.500000000000000     
  0.500000000000000     
  0.500000000000000     
  0.500000000000000     
  0.500000000000000     
  0.500000000000000     
  0.500000000000000     
  0.500000000000000     
  0.500000000000000     
  0.500000000000000     
  0.500000000000000     
  0.500000000000000     
  0.500000000000000     
  0.500000000000000     
  0.500000000000000     
  0.500000000000000     
  0.500000000000000     
  0.500000000000000     
  0.500000000000000     
  0.500000000000000     
  0.500000000000000     
  0.500000000000000     
  0.500000000000000     
  0.500000000000000     
  0.500000000000000     
  0.500000000000000     
  0.500000000000000     
  0.500000000000000     
  0.500000000000000     
  0.500000000000000     
  0.500000000000000     
  0.500000000000000     
  0.500000000000000     
  0.500000000000000     
  0.500000000000000     
  0.500000000000000     
  0.500000000000000     
  0.500000000000000     
  0.500000000000000     
  0.500000000000000     
  0.500000000000000     
  0.500000000000000     
  0.500000000000000     
  0.500000000000000     
  0.500000000000000     
  0.500000000000000     
  0.500000000000000     
  0.500000000000000     
  0.500000000000000     
  0.500000000000000     
  0.500000000000000     
  0.500000000000000     
  0.500000000000000     
  0.500000000000000     
  0.500000000000000     
  0.500000000000000     
  0.500000000000000     
  0.500000000000000     
  0.500000000000000     
  0.500000000000000     
  0.500000000000000     
  0.500000000000000     
  0.500000000000000     
  0.500000000000000     
  0.500000000000000     
  0.500000000000000     
  0.500000000000000     
  0.500000000000000     
  0.500000000000000     
  0.500000000000000     
  0.500000000000000     
  0.500000000000000     
  0.500000000000000     
  0.500000000000000     
  0.500000000000000     
  0.500000000000000     
  0.500000000000000     
  0.500000000000000     
  0.500000000000000     
  0.500000000000000     
  0.500000000000000     
  0.500000000000000     
  0.500000000000000     
  0.500000000000000     
  0.500000000000000     
  0.500000000000000     
  0.500000000000000     
  0.500000000000000     
  0.500000000000000     
  0.500000000000000     
  0.500000000000000     
  0.500000000000000     
  0.500000000000000     
  0.500000000000000     
  0.500000000000000     
  0.500000000000000     
  0.500000000000000     
  0.500000000000000     
  0.500000000000000     
  0.500000000000000     
  0.500000000000000     
  0.500000000000000     
  0.500000000000000     
  0.500000000000000     
  0.500000000000000     
  0.500000000000000     
  0.500000000000000     
  0.500000000000000     
  0.500000000000000     
  0.500000000000000     
  0.500000000000000     
  0.500000000000000     
  0.500000000000000     
  0.500000000000000     
  0.500000000000000     
  0.500000000000000     
  0.500000000000000     
  0.500000000000000     
  0.500000000000000     
  0.500000000000000     
  0.500000000000000     
  0.500000000000000     
  0.500000000000000     
  0.500000000000000     
  0.500000000000000     
  0.500000000000000     
  0.500000000000000     
  0.500000000000000     
  0.500000000000000     
  0.500000000000000     
  0.500000000000000     
  0.500000000000000     
  0.500000000000000     
  0.500000000000000     
  0.500000000000000     
  0.500000000000000     
  0.500000000000000     
  0.500000000000000     
  0.500000000000000     
  0.500000000000000     
  0.500000000000000     
  0.500000000000000     
  0.500000000000000     
  0.500000000000000     
  0.500000000000000     
  0.500000000000000     
  0.500000000000000     
  0.500000000000000     
  0.500000000000000     
  0.500000000000000     
  0.500000000000000     
  0.500000000000000     
  0.500000000000000     
  0.500000000000000     
  0.500000000000000     
  0.500000000000000     
  0.500000000000000     
  0.500000000000000     
  0.500000000000000     
  0.500000000000000     
  0.500000000000000     
  0.500000000000000     
  0.500000000000000     
  0.500000000000000     
  0.500000000000000     
  0.500000000000000     
  0.500000000000000     
  0.500000000000000     
  0.500000000000000     
  0.500000000000000     
  0.500000000000000     
  0.500000000000000     
  0.500000000000000     
  0.500000000000000     
  0.500000000000000     
  0.500000000000000     
  0.500000000000000     
  0.500000000000000     
  0.500000000000000     
  0.500000000000000     
  0.500000000000000     
  0.500000000000000     
  0.500000000000000     
  0.500000000000000     
  0.500000000000000     
  0.500000000000000     
  0.500000000000000     
  0.500000000000000     
  0.500000000000000     
  0.500000000000000     
  0.500000000000000     
  0.500000000000000     
  0.500000000000000     
  0.500000000000000     
  0.500000000000000     
  0.500000000000000     
  0.500000000000000     
  0.500000000000000     
  0.500000000000000     
  0.500000000000000     
  0.500000000000000     
  0.500000000000000     
  0.500000000000000     
  0.500000000000000     
  0.500000000000000     
  0.500000000000000     
  0.500000000000000     
  0.500000000000000     
  0.500000000000000     
  0.500000000000000     
  0.500000000000000     
  0.500000000000000     
  0.500000000000000     
  0.500000000000000     
  0.500000000000000     
  0.500000000000000     
  0.500000000000000     
  0.500000000000000     
  0.500000000000000     
  0.500000000000000     
  0.500000000000000     
  0.500000000000000     
  0.500000000000000     
  0.500000000000000     
  0.500000000000000     
  0.500000000000000     
  0.500000000000000     
  0.500000000000000     
  0.500000000000000     
  0.500000000000000     
  0.500000000000000     
  0.500000000000000     
  0.500000000000000     
  0.500000000000000     
  0.500000000000000     
  0.500000000000000     
  0.500000000000000     
  0.500000000000000     
  0.500000000000000     
  0.500000000000000     
  0.500000000000000     
  0.500000000000000     
  0.500000000000000     
  0.500000000000000     
  0.500000000000000     
  0.500000000000000     
  0.500000000000000     