# vtk DataFile Version 5.1
Data.vtk
ASCII
DATASET UNSTRUCTURED_GRID
 
POINTS 2000 float
   -1.45  -11.66   -0.61
  -10.73   -9.74    1.74
    4.88  -12.68    2.94
   -2.46  -12.11   -1.58
   -4.95  -12.60    7.53
   -1.66  -11.51   -9.42
  -10.64   -6.39   -7.34
    1.57  -13.46   -8.59
  -11.71   -7.59   -4.57
   -5.15  -12.60   -0.59
   -1.68  -14.40   -4.66
   -4.42  -12.20   -9.28
   -0.53  -10.96   -1.53
   -4.61  -11.90    0.63
    2.95  -14.20   -1.42
  -12.09   -7.86    1.03
   -8.22  -10.74    5.86
    3.12  -12.34    4.80
   -3.73  -10.21    5.93
    4.92  -12.70   -4.59
    3.93  -13.96   -1.01
   -0.75  -10.96    4.59
   -7.90   -9.82   -9.50
    1.43  -11.44   -4.18
   -2.15  -12.41   -0.68
  -11.44   -8.91   -8.62
    3.81  -13.97    7.10
   -0.64  -11.88    7.21
   -7.12  -12.63   -1.19
   -1.99  -14.36    9.50
    4.06  -12.27   -4.08
   -9.18  -11.23   -1.88
  -12.70   -7.00    8.39
   -7.79  -10.85   -2.69
    2.48  -13.39   -4.89
   -1.13  -10.62    5.99
   -8.59  -11.68    9.50
   -1.22  -13.70    6.09
   -2.97  -14.19    1.26
   -4.31  -12.12    1.56
  -10.45   -7.61    1.60
    5.66  -13.32   -1.37
   -5.04  -13.59   -8.29
   -0.90  -12.57    0.78
   -5.17  -12.64   -8.58
  -10.47   -6.90    2.60
   -7.00   -8.27    3.70
    0.17  -12.00   -4.33
  -11.92   -6.64    2.86
    1.33  -11.50   -5.50
   -4.25  -10.19   -4.80
   -2.78  -11.84    9.45
   -4.10  -12.89    7.97
   -6.19  -11.95    2.18
   -8.23  -11.94    5.10
   -9.23   -9.99    0.86
  -12.41   -7.50   -7.70
   -0.87  -14.46    3.19
    1.56  -14.42    1.59
   -9.65   -8.97   -9.17
    0.34  -14.50   -2.62
   -3.95  -13.94   -9.50
   -2.25  -11.70    7.00
   -0.30  -11.05    2.85
   -4.30  -10.14    0.58
   -4.49  -12.83    0.17
    3.73  -13.33   -3.53
   -7.93  -11.04    3.72
    3.70  -11.95   -1.77
   -8.65   -9.77   -2.52
   -9.93  -10.56    8.42
    2.70  -11.75   -5.30
   -3.30  -10.91   -2.90
   -9.34  -11.08    6.46
  -12.55   -7.20    5.01
    5.29  -13.50   -8.09
  -13.06   -6.09    8.18
   -4.79   -9.20   -5.14
   -4.95  -12.61    2.15
  -12.24   -7.23   -2.74
   -5.36   -8.60    7.26
  -11.92   -8.26    6.61
    0.85  -12.66   -1.98
  -13.29   -4.49   -6.25
    2.02  -12.30   -7.08
   -6.08  -10.74   -4.98
    5.24  -13.52    2.25
   -9.45   -9.75   -6.24
   -4.99  -13.61   -0.25
   -8.05   -9.77    6.02
   -5.94  -11.04    0.22
   -1.19  -10.90   -7.03
   -4.79  -13.68   -3.80
   -4.90  -13.65    9.46
   -5.14   -9.97    2.13
   -8.36  -11.82   -3.58
    0.18  -14.50    2.90
   -2.91  -13.34    5.74
   -4.95   -9.27   -1.12
   -5.17  -13.54   -1.96
    2.11  -12.03    1.75
  -10.06   -9.18   -3.94
   -7.94  -12.13    1.26
  -12.20   -7.81    7.46
   -1.09  -14.46    2.21
  -12.91   -6.37   -7.77
   -4.67  -10.67    3.95
   -5.78  -13.30   -3.79
    5.32  -12.64    7.40
   -0.16  -13.01    3.74
   -5.03  -13.60    7.54
   -2.63  -13.39   -2.52
   -7.76   -9.17   -2.85
   -5.41   -9.44   -6.74
   -2.01  -10.62    2.09
   -6.91   -8.49   -8.38
    0.98  -14.42    0.76
   -5.94  -13.21   -8.08
    2.38  -11.36    2.50
   -5.91  -12.27    9.28
   -4.97   -8.83    5.51
  -10.89   -9.57    9.50
    0.05  -11.98    8.67
   -9.37  -11.00    4.14
   -5.46  -13.41    0.61
  -12.70   -6.99   -4.41
   -3.75   -9.53   -3.28
    4.69  -13.66    3.12
   -1.42   -9.87   -5.03
   -6.59   -8.43   -6.85
   -3.66  -12.45   -3.72
   -7.72  -12.27    3.24
  -10.30  -10.21   -0.58
   -9.37  -11.00    0.46
   -4.41  -12.19   -8.00
    0.98  -12.28    6.48
    3.92  -13.13   -4.57
    4.64  -12.64   -2.51
   -9.48   -7.60    8.97
    0.29  -11.04    1.97
   -8.54  -10.47   -3.23
    4.83  -13.66    4.11
   -3.45  -12.67   -6.61
   -3.92  -13.85    9.50
   -7.33  -12.50    6.49
    2.77  -12.38    8.11
   -2.01  -12.88    5.64
  -13.11   -5.00   -9.01
   -1.82  -10.67   -4.36
    1.34  -11.81   -8.64
   -5.94  -11.52    4.59
   -6.97  -12.71   -2.21
   -6.72  -12.85    5.78
   -8.52  -11.72   -6.15
    4.53  -12.89   -5.53
    2.95  -14.19    1.94
    2.14  -14.34    2.50
  -13.05   -6.15    7.16
   -2.52  -13.60    7.47
   -9.10   -8.24    4.73
   -5.22  -13.53   -7.31
  -13.49   -4.88    6.74
   -1.71  -10.11   -6.70
   -6.42   -8.73   -0.07
   -6.75  -10.54   -8.17
   -8.60  -11.68    1.94
    1.84  -13.62   -2.44
    3.18  -12.97   -6.58
  -11.54   -7.32   -1.15
   -7.04  -11.55   -7.49
   -3.33  -10.23    0.81
   -7.82  -11.15   -8.02
   -5.68  -10.85    7.91
   -7.80  -12.22   -6.64
   -0.41  -13.30    5.50
   -9.77  -10.66   -1.30
   -3.22  -11.33    8.68
   -6.79  -11.60    9.50
   -7.94  -12.13   -5.27
   -1.49  -13.32   -0.48
    2.13  -14.34   -9.50
  -12.56   -7.25    1.67
   -5.87   -8.97   -0.87
   -7.21  -10.43   -9.10
   -3.89  -10.86    8.10
   -4.16  -10.26   -2.74
   -1.31  -14.44   -6.44
    3.71  -12.41   -5.22
   -1.29  -14.44    7.20
    4.73  -12.96   -1.35
   -3.54  -13.05   -2.72
    1.11  -12.05    4.14
   -3.72  -10.04    7.51
   -2.09  -12.41   -9.46
  -11.64   -8.15   -5.40
   -7.69   -9.42    5.15
  -11.15   -9.27   -9.50
   -1.08  -10.69   -3.41
    5.08  -13.58   -0.52
   -9.37   -9.63   -1.43
   -8.69   -9.87    4.99
   -7.44   -8.18    8.46
   -2.71  -10.88   -3.96
   -1.01  -13.23   -1.39
    2.84  -13.29    2.37
    2.07  -13.34   -9.44
   -9.72   -8.08   -5.50
   -6.77  -12.74    9.50
  -13.69   -4.77   -8.23
   -3.55  -11.97   -8.56
   -7.19  -11.63    6.95
   -3.35  -10.50   -6.81
   -9.87   -9.58    2.84
    2.03  -13.00   -3.21
  -11.74   -8.46   -9.48
  -12.34   -6.58   -0.05
  -11.21   -9.11    1.13
    3.98  -13.33    4.52
   -2.60  -12.50   -7.33
    2.25  -14.32   -5.16
  -13.53   -3.88    8.48
   -7.13  -10.24    5.33
   -3.18  -13.65   -8.65
   -2.91  -13.26   -3.47
   -2.88   -9.83    9.47
   -5.16   -9.01    8.15
   -0.35  -14.50   -9.50
   -4.69   -9.42   -2.79
   -4.23  -11.65    9.47
   -1.10  -11.94   -8.63
    5.42  -13.45   -3.29
   -3.96  -11.33    4.20
    0.19  -12.81   -6.89
   -4.24  -11.80    7.93
    1.99  -14.36   -8.48
    1.92  -14.37   -3.10
   -8.09  -12.02    0.27
  -11.30   -9.02    2.13
   -2.62  -11.31    3.14
   -1.90  -13.54   -7.39
   -1.86  -13.90    5.12
  -11.68   -6.30    4.80
   -1.82  -13.38   -9.50
   -2.09  -11.91   -8.55
  -11.82   -7.88    4.09
   -3.93  -13.95    1.14
   -3.62  -11.62   -9.50
  -12.57   -6.87   -1.83
  -13.40   -4.66    9.25
   -2.34  -11.52    7.98
   -0.40  -13.78   -2.86
   -6.48  -12.56   -9.50
   -7.68  -10.17   -8.26
    2.83  -11.74    6.58
   -7.63   -8.81    4.36
   -1.71  -11.72    3.26
   -9.23   -7.40   -9.34
    3.11  -12.03    1.59
   -2.54  -14.28   -7.61
   -6.27  -10.95   -0.76
   -5.17   -9.19   -9.46
  -10.39   -8.22   -6.94
   -3.26  -14.13    7.90
  -12.15   -7.83    8.46
    1.05  -14.46   -8.12
    0.39  -10.86   -2.15
    1.23  -11.29    0.80
  -12.05   -7.94    9.50
   -1.48  -12.66   -7.07
   -5.04  -11.65   -8.72
   -6.33  -11.82   -0.26
   -1.60  -13.67    1.03
    3.65  -13.35   -8.43
   -0.12  -10.42   -3.07
   -7.76   -9.07   -7.30
    3.33  -12.71    9.20
   -5.16  -11.36    3.28
   -8.74   -8.08    6.40
   -9.30   -8.19   -8.49
    2.54  -14.28   -0.45
    0.43  -13.52    6.11
   -0.05  -10.56    5.23
   -6.56  -10.05   -4.43
   -6.54   -9.41    9.08
   -4.21  -13.87   -2.40
  -11.70   -8.57    5.52
   -0.19  -13.79   -1.45
   -5.20  -11.64    7.53
  -11.89   -7.36   -8.55
   -7.81   -8.26    2.14
    1.96  -13.43    2.87
  -12.55   -7.08    9.37
   -9.27  -11.15   -3.31
   -7.31  -10.83   -6.27
  -10.74   -8.39    8.02
   -7.83  -10.39    0.08
   -0.08  -11.27   -4.97
   -9.49   -9.33    7.44
    1.67  -12.47    4.85
    6.58  -12.92   -4.77
    2.90  -12.50    0.18
    0.72  -11.04    3.14
   -3.41  -13.02    3.09
  -11.65   -8.63   -2.16
   -7.73   -8.60   -0.87
    0.54  -11.66    5.83
  -10.98   -7.77    6.34
    3.29  -13.24   -5.62
   -5.26  -13.46   -2.95
   -9.64   -9.48    9.50
   -6.22  -10.67   -5.96
   -7.67  -10.47    6.66
   -9.09  -11.30   -0.88
   -3.64  -14.03   -1.27
   -8.62   -8.88   -6.36
   -6.08   -9.60   -3.67
   -4.43   -9.87   -9.50
  -12.94   -6.52   -2.70
    2.23  -14.33    6.05
   -6.11  -12.30   -8.61
    1.21  -12.03   -7.65
  -10.40  -10.02   -5.98
   -0.11  -12.41   -2.15
   -0.02  -11.96   -3.35
   -8.75  -11.55   -5.19
  -12.80   -6.49   -0.93
   -6.01  -13.15    4.98
   -9.21   -7.59    5.66
   -1.08  -13.51   -6.73
    1.44  -12.90    1.68
  -10.61   -9.87   -3.25
    0.37  -12.86   -0.22
    5.49  -12.68    1.78
   -1.30  -13.44   -3.67
    2.10  -13.40    8.66
   -1.25  -14.45   -3.58
   -9.15  -10.12    8.90
    3.32  -14.12    6.23
    1.35  -14.44   -0.41
   -8.27   -9.80   -1.43
  -10.78   -9.70   -5.11
   -5.23   -9.22   -7.92
   -2.47   -9.18    4.33
   -3.59  -13.11    6.44
   -2.82  -10.48   -8.56
   -3.41  -12.69   -7.89
  -12.88   -6.08    6.17
   -7.71  -12.26   -2.95
   -1.64  -12.68   -4.22
   -1.30  -14.44    8.34
    0.27  -14.50   -5.18
   -4.75  -10.74   -9.14
    1.28  -14.42   -5.41
   -4.93  -13.63    5.72
   -4.00  -12.06   -5.17
  -11.61   -8.69    7.47
   -6.29   -9.40   -2.54
    1.62  -10.95    5.81
  -11.03   -9.31    5.55
   -4.88  -13.65   -9.28
    2.31  -11.65    7.61
    1.04  -11.87    8.78
  -11.97   -7.82   -6.29
   -4.15  -10.32    9.31
   -1.16  -10.15    4.17
   -4.64  -13.66    1.78
   -4.09  -13.91    7.38
    2.79  -12.12   -6.22
  -11.31   -9.06   -5.66
  -14.01   -3.75    9.48
   -1.73  -11.40   -3.68
   -8.76   -9.31   -9.48
   -7.98   -8.25   -3.23
   -3.59  -12.42    9.50
   -8.95  -11.36   -4.23
    2.10  -14.35    4.31
   -6.22   -8.81    4.04
  -11.94   -8.15   -3.00
   -6.50  -11.95   -4.31
   -7.59  -12.36   -9.23
   -2.42  -10.84   -7.01
  -11.09   -9.34   -3.94
   -4.27  -12.88   -6.07
   -6.47  -10.88    5.72
   -2.98  -14.19   -9.46
   -9.96   -8.08   -9.50
  -11.39   -8.98   -3.06
   -4.04  -10.90    1.19
    1.74  -14.10   -7.35
  -11.34   -7.12   -9.35
    2.24  -11.54    9.29
   -4.99   -9.69    3.76
  -11.75   -8.18   -8.00
   -8.25   -8.60    5.14
  -10.22  -10.29    9.37
   -3.85  -10.21    2.38
[...]
POINT_DATA 2000
SCALARS radius float
LOOKUP_TABLE default
  0.500000000000000     
  0.500000000000000     
  0.500000000000000     
  0.500000000000000     
  0.500000000000000     
  0.500000000000000     
  0.500000000000000     
  0.500000000000000     
  0.500000000000000     
  0.500000000000000     
  0.500000000000000     
  0.500000000000000     
  0.500000000000000     
  0.500000000000000     
  0.500000000000000     
  0.500000000000000     
  0.500000000000000     
  0.500000000000000     
  0.500000000000000     
  0.500000000000000     
  0.500000000000000     
  0.500000000000000     
  0.500000000000000     
  0.500000000000000     
  0.500000000000000     
  0.500000000000000     
  0.500000000000000     
  0.500000000000000     
  0.500000000000000     
  0.500000000000000     
  0.500000000000000     
  0.500000000000000     
  0.500000000000000     
  0.500000000000000     
  0.500000000000000     
  0.500000000000000     
  0.500000000000000     
  0.500000000000000     
  0.500000000000000     
  0.500000000000000     
  0.500000000000000     
  0.500000000000000     
  0.500000000000000     
  0.500000000000000     
  0.500000000000000     
  0.500000000000000     
  0.500000000000000     
  0.500000000000000     
  0.500000000000000     
  0.500000000000000     
  0.500000000000000     
  0.500000000000000     
  0.500000000000000     
  0.500000000000000     
  0.500000000000000     
  0.500000000000000     
  0.500000000000000     
  0.500000000000000     
  0.500000000000000     
  0.500000000000000     
  0.500000000000000     
  0.500000000000000     
  0.500000000000000     
  0.500000000000000     
  0.500000000000000     
  0.500000000000000     
  0.500000000000000     
  0.500000000000000     
  0.500000000000000     
  0.500000000000000     
  0.500000000000000     
  0.500000000000000     
  0.500000000000000     
  0.500000000000000     
  0.500000000000000     
  0.500000000000000     
  0.500000000000000     
  0.500000000000000     
  0.500000000000000     
  0.500000000000000     
  0.500000000000000     
  0.500000000000000     
  0.500000000000000     
  0.500000000000000     
  0.500000000000000     
  0.500000000000000     
  0.500000000000000     
  0.500000000000000     
  0.500000000000000     
  0.500000000000000     
  0.500000000000000     
  0.500000000000000     
  0.500000000000000     
  0.500000000000000     
  0.500000000000000     
  0.500000000000000     
  0.500000000000000     
  0.500000000000000     
  0.500000000000000     
  0.500000000000000     
  0.500000000000000     
  0.500000000000000     
  0.500000000000000     
  0.500000000000000     
  0.500000000000000     
  0.500000000000000     
  0.500000000000000     
  0.500000000000000     
  0.500000000000000     
  0.500000000000000     
  0.500000000000000     
  0.500000000000000     
  0.500000000000000     
  0.500000000000000     
  0.500000000000000     
  0.500000000000000     
  0.500000000000000     
  0.500000000000000     
  0.500000000000000     
  0.500000000000000     
  0.500000000000000     
  0.500000000000000     
  0.500000000000000     
  0.500000000000000     
  0.500000000000000     
  0.500000000000000     
  0.500000000000000     
  0.500000000000000     
  0.500000000000000     
  0.500000000000000     
  0.500000000000000     
  0.500000000000000     
  0.500000000000000     
  0.500000000000000     
  0.500000000000000     
  0.500000000000000     
  0.500000000000000     
  0.500000000000000     
  0.500000000000000     
  0.500000000000000     
  0.500000000000000     
  0.500000000000000     
  0.500000000000000     
  0.500000000000000     
  0.500000000000000     
  0.500000000000000     
  0.500000000000000     
  0.500000000000000     
  0.500000000000000     
  0.500000000000000     
  0.500000000000000     
  0.500000000000000     
  0.500000000000000     
  0.500000000000000     
  0.500000000000000     
  0.500000000000000     
  0.500000000000000     
  0.500000000000000     
  0.500000000000000     
  0.500000000000000     
  0.500000000000000     
  0.500000000000000     
  0.500000000000000     
  0.500000000000000     
  0.500000000000000     
  0.500000000000000     
  0.500000000000000     
  0.500000000000000     
  0.500000000000000     
  0.500000000000000     
  0.500000000000000     
  0.500000000000000     
  0.500000000000000     
  0.500000000000000     
  0.500000000000000     
  0.500000000000000     
  0.500000000000000     
  0.500000000000000     
  0.500000000000000     
  0.500000000000000     
  0.500000000000000     
  0.500000000000000     
  0.500000000000000     
  0.500000000000000     
  0.500000000000000     
  0.500000000000000     
  0.500000000000000     
  0.500000000000000     
  0.500000000000000     
  0.500000000000000     
  0.500000000000000     
  0.500000000000000     
  0.500000000000000     
  0.500000000000000     
  0.500000000000000     
  0.500000000000000     
  0.500000000000000     
  0.500000000000000     
  0.500000000000000     
  0.500000000000000     
  0.500000000000000     
  0.500000000000000     
  0.500000000000000     
  0.500000000000000     
  0.500000000000000     
  0.500000000000000     
  0.500000000000000     
  0.500000000000000     
  0.500000000000000     
  0.500000000000000     
  0.500000000000000     
  0.500000000000000     
  0.500000000000000     
  0.500000000000000     
  0.500000000000000     
  0.500000000000000     
  0.500000000000000     
  0.500000000000000     
  0.500000000000000     
  0.500000000000000     
  0.500000000000000     
  0.500000000000000     
  0.500000000000000     
  0.500000000000000     
  0.500000000000000     
  0.500000000000000     
  0.500000000000000     
  0.500000000000000     
  0.500000000000000     
  0.500000000000000     
  0.500000000000000     
  0.500000000000000     
  0.500000000000000     
  0.500000000000000     
  0.500000000000000     
  0.500000000000000     
  0.500000000000000     
  0.500000000000000     
  0.500000000000000     
  0.500000000000000     
  0.500000000000000     
  0.500000000000000     
  0.500000000000000     
  0.500000000000000     
  0.500000000000000     
  0.500000000000000     
  0.500000000000000     
  0.500000000000000     
  0.500000000000000     
  0.500000000000000     
  0.500000000000000     
  0.500000000000000     
  0.500000000000000     
  0.500000000000000     
  0.500000000000000     
  0.500000000000000     
  0.500000000000000     
  0.500000000000000     
  0.500000000000000     
  0.500000000000000     
  0.500000000000000     
  0.500000000000000     
  0.500000000000000     
  0.500000000000000     
  0.500000000000000     
  0.500000000000000     
  0.500000000000000     
  0.500000000000000     
  0.500000000000000     
  0.500000000000000     
  0.500000000000000     
  0.500000000000000     
  0.500000000000000     
  0.500000000000000     
  0.500000000000000     
  0.500000000000000     
  0.500000000000000     
  0.500000000000000     
  0.500000000000000     
  0.500000000000000     
  0.500000000000000     
  0.500000000000000     
  0.500000000000000     
  0.500000000000000     
  0.500000000000000     
  0.500000000000000     
  0.500000000000000     
  0.500000000000000     
  0.500000000000000     
  0.500000000000000     
  0.500000000000000     
  0.500000000000000     
  0.500000000000000     
  0.500000000000000     
  0.500000000000000     
  0.500000000000000     
  0.500000000000000     
  0.500000000000000     
  0.500000000000000     
  0.500000000000000     
  0.500000000000000     
  0.500000000000000     
  0.500000000000000     
  0.500000000000000     
  0.500000000000000     
  0.500000000000000     
  0.500000000000000     
  0.500000000000000     
  0.500000000000000     
  0.500000000000000     
  0.500000000000000     
  0.500000000000000     
  0.500000000000000     
  0.500000000000000     
  0.500000000000000     
  0.500000000000000     
  0.500000000000000     
  0.500000000000000     
  0.500000000000000     
  0.500000000000000     
  0.500000000000000     
  0.500000000000000     
  0.500000000000000     
  0.500000000000000     
  0.500000000000000     
  0.500000000000000     
  0.500000000000000     
  0.500000000000000     
  0.500000000000000     
  0.500000000000000     
  0.500000000000000     
  0.500000000000000     
  0.500000000000000     
  0.500000000000000     
  0.500000000000000     
  0.500000000000000     
  0.500000000000000     
  0.500000000000000     
  0.500000000000000     
  0.500000000000000     
  0.500000000000000     
  0.500000000000000     
  0.500000000000000     
  0.500000000000000     
  0.500000000000000     
  0.500000000000000     
  0.500000000000000     
  0.500000000000000     
  0.500000000000000     
  0.500000000000000     
  0.500000000000000     
  0.500000000000000     
  0.500000000000000     
  0.500000000000000     
  0.500000000000000     
  0.500000000000000     
  0.500000000000000     
  0.500000000000000     
  0.500000000000000     
  0.500000000000000     
  0.500000000000000     
  0.500000000000000     
  0.500000000000000     
  0.500000000000000     
  0.500000000000000     
  0.500000000000000     
  0.500000000000000     
  0.500000000000000     
  0.500000000000000     
  0.500000000000000     
  0.500000000000000     
  0.500000000000000     
  0.500000000000000     
  0.500000000000000     
  0.500000000000000     
  0.500000000000000     
  0.500000000000000     
  0.500000000000000     
  0.500000000000000     
  0.500000000000000     
  0.500000000000000     
  0.500000000000000     
  0.500000000000000     
  0.500000000000000     
  0.500000000000000     
  0.500000000000000     
  0.500000000000000     
  0.500000000000000     
  0.500000000000000     
  0.500000000000000     
  0.500000000000000     
  0.500000000000000     
  0.500000000000000     
  0.500000000000000     
  0.500000000000000     
  0.500000000000000     
  0.500000000000000     
  0.500000000000000     
  0.500000000000000     
  0.500000000000000     
  0.500000000000000     
  0.500000000000000     
  0.500000000000000     
  0.500000000000000     
  0.500000000000000     
  0.500000000000000     
  0.500000000000000     
  0.500000000000000     
  0.500000000000000     
  0.500000000000000     
  0.500000000000000     
  0.500000000000000     
  0.500000000000000     
  0.500000000000000     
  0.500000000000000     
  0.500000000000000     
  0.500000000000000     
  0.500000000000000     
  0.500000000000000     
  0.500000000000000     
  0.500000000000000     
  0.500000000000000     
  0.500000000000000     
  0.500000000000000     
  0.500000000000000     
  0.500000000000000     
  0.500000000000000     
  0.500000000000000     
  0.500000000000000     
  0.500000000000000     
  0.500000000000000     
  0.500000000000000     
  0.500000000000000     
  0.500000000000000     
  0.500000000000000     
  0.500000000000000     
  0.500000000000000     
  0.500000000000000     
  0.500000000000000     
  0.500000000000000     
  0.500000000000000     
  0.500000000000000     
  0.500000000000000     
  0.500000000000000     
  0.500000000000000     
  0.500000000000000     
  0.500000000000000     
  0.500000000000000     
  0.500000000000000     
  0.500000000000000     
  0.500000000000000     
  0.500000000000000     
  0.500000000000000     
  0.500000000000000     
  0.500000000000000     
  0.500000000000000     
  0.500000000000000     
  0.500000000000000     
  0.500000000000000     
  0.500000000000000     
  0.500000000000000     
  0.500000000000000     
  0.500000000000000     
  0.500000000000000     
  0.500000000000000     
  0.500000000000000     
  0.500000000000000     
  0.500000000000000     
  0.500000000000000     
  0.500000000000000     
  0.500000000000000     
  0.500000000000000     
  0.500000000000000     
  0.500000000000000     
  0.500000000000000     
  0.500000000000000     
  0.500000000000000     
  0.500000000000000     
  0.500000000000000     
  0.500000000000000     
  0.500000000000000     
  0.500000000000000     
  0.500000000000000     
  0.500000000000000     
  0.500000000000000     
  0.500000000000000     
  0.500000000000000     
  0.500000000000000     
  0.500000000000000     
  0.500000000000000     
  0.500000000000000     
  0.500000000000000     
  0.500000000000000     
  0.500000000000000     
  0.500000000000000     
  0.500000000000000     
  0.500000000000000     
  0.500000000000000     
  0.500000000000000     
  0.500000000000000     
  0.500000000000000     
  0.500000000000000     
  0.500000000000000     
  0.500000000000000     
  0.500000000000000     
  0.500000000000000     
  0.500000000000000     
  0.500000000000000     
  0.500000000000000     
  0.500000000000000     
  0.500000000000000     
  0.500000000000000     
  0.500000000000000     
  0.500000000000000     
  0.500000000000000     
  0.500000000000000     
  0.500000000000000     
  0.500000000000000     
  0.500000000000000     
  0.500000000000000     
  0.500000000000000     
  0.500000000000000     
  0.500000000000000     
  0.500000000000000     
  0.500000000000000     
  0.500000000000000     
  0.500000000000000     
  0.500000000000000     
  0.500000000000000     
  0.500000000000000     
  0.500000000000000     
  0.500000000000000     
  0.500000000000000     
  0.500000000000000     
  0.500000000000000     
  0.500000000000000     
  0.500000000000000     
  0.500000000000000     
  0.500000000000000     
  0.500000000000000     
  0.500000000000000     
  0.500000000000000     
  0.500000000000000     
  0.500000000000000     
  0.500000000000000     
  0.500000000000000     
  0.500000000000000     
  0.500000000000000     
  0.500000000000000     
  0.500000000000000     
  0.500000000000000     
  0.500000000000000     
  0.500000000000000     
  0.500000000000000     
  0.500000000000000     
  0.500000000000000     
  0.500000000000000     
  0.500000000000000     
  0.500000000000000     
  0.500000000000000     
  0.500000000000000     
  0.500000000000000     
  0.500000000000000     
  0.500000000000000     
  0.500000000000000     
  0.500000000000000     
  0.500000000000000     
  0.500000000000000     
  0.500000000000000     
  0.500000000000000     
  0.500000000000000     
  0.500000000000000     
  0.500000000000000     
  0.500000000000000     
  0.500000000000000     
  0.500000000000000     
  0.500000000000000     
  0.500000000000000     
  0.500000000000000     
  0.500000000000000     
  0.500000000000000     
  0.500000000000000     
  0.500000000000000     
  0.500000000000000     
  0.500000000000000     
  0.500000000000000     
  0.500000000000000     
  0.500000000000000     
  0.500000000000000     
  0.500000000000000     
  0.500000000000000     
  0.500000000000000     
  0.500000000000000     
  0.500000000000000     
  0.500000000000000     
  0.500000000000000     
  0.500000000000000     
  0.500000000000000     
  0.500000000000000     
  0.500000000000000     
  0.500000000000000     
  0.500000000000000     
  0.500000000000000     
  0.500000000000000     
  0.500000000000000     
  0.500000000000000     
  0.500000000000000     
  0.500000000000000     
  0.500000000000000     
  0.500000000000000     
  0.500000000000000     
  0.500000000000000     
  0.500000000000000     
  0.500000000000000     
  0.500000000000000     
  0.500000000000000     
  0.500000000000000     
  0.500000000000000     
  0.500000000000000     
  0.500000000000000     
  0.500000000000000     
  0.500000000000000     
  0.500000000000000     
  0.500000000000000     
  0.500000000000000     
  0.500000000000000     
  0.500000000000000     
  0.500000000000000     
  0.500000000000000     
  0.500000000000000     
  0.500000000000000     
  0.500000000000000     
  0.500000000000000     
  0.500000000000000     
  0.500000000000000     
  0.500000000000000     
  0.500000000000000     
  0.500000000000000     
  0.500000000000000     
  0.500000000000000     
  0.500000000000000     
  0.500000000000000     
  0.500000000000000     
  0.500000000000000     
  0.500000000000000     
  0.500000000000000     
  0.500000000000000     
  0.500000000000000     
  0.500000000000000     
  0.500000000000000     
  0.500000000000000     
  0.500000000000000     
  0.500000000000000     
  0.500000000000000     
  0.500000000000000     
  0.500000000000000     
  0.500000000000000     
  0.500000000000000     
  0.500000000000000     
  0.500000000000000     
  0.500000000000000     
  0.500000000000000     
  0.500000000000000     
  0.500000000000000     
  0.500000000000000     
  0.500000000000000     
  0.500000000000000     
  0.500000000000000     
  0.500000000000000     
  0.500000000000000     
  0.500000000000000     
  0.500000000000000     
  0.500000000000000     
  0.500000000000000     
  0.500000000000000     
  0.500000000000000     
  0.500000000000000     
  0.500000000000000     
  0.500000000000000     
  0.500000000000000     
  0.500000000000000     
  0.500000000000000     
  0.500000000000000     
  0.500000000000000     
  0.500000000000000     
  0.500000000000000     
  0.500000000000000     
  0.500000000000000     
  0.500000000000000     
  0.500000000000000     
  0.500000000000000     
  0.500000000000000     
  0.500000000000000     
  0.500000000000000     
  0.500000000000000     
  0.500000000000000     
  0.500000000000000     
  0.500000000000000     
  0.500000000000000     
  0.500000000000000     
  0.500000000000000     
  0.500000000000000     
  0.500000000000000     
  0.500000000000000     
  0.500000000000000     
  0.500000000000000     
  0.500000000000000     
  0.500000000000000     
  0.500000000000000     
  0.500000000000000     
  0.500000000000000     
  0.500000000000000     
  0.500000000000000     
  0.500000000000000     
  0.500000000000000     
  0.500000000000000     
  0.500000000000000     
  0.500000000000000     
  0.500000000000000     
  0.500000000000000     
  0.500000000000000     
  0.500000000000000     
  0.500000000000000     
  0.500000000000000     
  0.500000000000000     
  0.500000000000000     
  0.500000000000000     
  0.500000000000000     
  0.500000000000000     
  0.500000000000000     
  0.500000000000000     
  0.500000000000000     
  0.500000000000000     
  0.500000000000000     
  0.500000000000000     
  0.500000000000000     
  0.500000000000000     
  0.500000000000000     
  0.500000000000000     
  0.500000000000000     
  0.500000000000000     
  0.500000000000000     
  0.500000000000000     
  0.500000000000000     
  0.500000000000000     
  0.500000000000000     
  0.500000000000000     
  0.500000000000000     
  0.500000000000000     
  0.500000000000000     
  0.500000000000000     
  0.500000000000000     
  0.500000000000000     
  0.500000000000000     
  0.500000000000000     
  0.500000000000000     
  0.500000000000000     
  0.500000000000000     
  0.500000000000000     
  0.500000000000000     
  0.500000000000000     
  0.500000000000000     
  0.500000000000000     
  0.500000000000000     
  0.500000000000000     
  0.500000000000000     
  0.500000000000000     
  0.500000000000000     
  0.500000000000000     
  0.500000000000000     
  0.500000000000000     
  0.500000000000000     
  0.500000000000000     
  0.500000000000000     
  0.500000000000000     
  0.500000000000000     
  0.500000000000000     
  0.500000000000000     
  0.500000000000000     
  0.500000000000000     
  0.500000000000000     
  0.500000000000000     
  0.500000000000000     
  0.500000000000000     
  0.500000000000000     
  0.500000000000000     
  0.500000000000000     
  0.500000000000000     
  0.500000000000000     
  0.500000000000000     
  0.500000000000000     
  0.500000000000000     
  0.500000000000000     
  0.500000000000000     
  0.500000000000000     
  0.500000000000000     
  0.500000000000000     