# vtk DataFile Version 5.1
Data.vtk
ASCII
DATASET UNSTRUCTURED_GRID
 
POINTS 2000 float
    1.65  -13.52    0.73
    9.91   -9.38   -0.48
   -0.29  -14.50    5.73
    1.49  -13.53   -1.78
   -3.74  -11.79    7.29
    0.72  -13.68   -8.79
    4.34  -10.40   -8.57
   -1.03  -13.19   -8.60
    4.96  -10.60   -3.94
    7.68  -11.18    0.87
   -1.47  -13.18   -1.04
    0.87  -14.47   -8.20
    4.29  -12.51    0.24
    0.67  -13.72    2.98
    3.42  -12.56   -0.89
    6.64  -10.45    2.09
    5.66  -10.18    5.56
    2.21  -13.63    7.57
   12.15   -7.91    8.08
    1.99  -13.54   -3.88
    1.96  -14.37   -1.50
   10.67   -9.82    6.92
   -1.39  -11.53   -8.75
    8.63  -11.65   -7.34
    6.81  -11.91    1.69
   -2.34  -11.92   -0.22
    3.26  -14.13    9.50
    1.27  -12.42    7.46
   -6.40  -11.73    1.75
   -5.53  -13.40    4.18
    2.12  -14.34   -3.30
    3.78  -10.90   -0.82
    2.12  -10.86    5.09
    3.97  -13.20   -3.16
   -4.16  -13.89   -3.72
    5.78  -12.56    8.02
    0.28  -13.01    7.28
   -0.75  -12.88    5.94
    0.70  -11.36    0.84
    1.42  -13.75    3.64
    8.56   -8.28    4.98
   -2.88  -14.21   -0.26
   -4.45  -11.68   -6.01
    2.00  -14.36    2.14
   -9.05  -11.33   -7.07
   -0.03  -10.50    8.12
    5.71  -10.63    4.67
    3.54  -12.24   -5.52
    9.45   -8.23    6.87
    3.59  -11.98   -9.50
    6.22  -12.16   -8.43
   -7.41  -11.48    9.50
    2.41  -11.17    6.65
    7.83  -11.01    2.78
    1.01  -11.24    5.12
    6.57  -10.25   -1.60
    1.23  -11.57   -4.40
   -2.22  -12.38    3.39
   -6.40  -13.01   -0.57
   -5.23  -12.30   -2.79
   -3.88  -12.57   -0.56
   -3.92  -11.71    1.18
    3.37  -11.05    6.88
    9.21  -11.20    4.44
    8.52  -11.73    2.72
    5.46  -11.77    0.51
    0.07  -14.50    0.03
    7.78  -11.43    4.12
    4.53  -13.40    0.64
    4.02  -12.84   -6.17
   -9.69  -10.78    7.62
    7.12  -12.63   -7.52
    1.03  -13.69   -3.67
    4.85  -10.20    4.41
    8.14   -9.17    4.83
   -1.54  -14.42   -6.11
    5.12   -9.50    5.07
   -0.78  -10.85   -8.36
    6.42  -11.38    3.60
    5.45   -9.82   -4.33
    7.14   -8.80    7.26
    6.42  -10.11    6.38
    5.26  -12.62    0.02
    1.92  -10.87   -8.44
    7.02  -12.69   -8.72
    5.35  -11.88   -7.14
   -3.84  -13.98   -0.07
    1.44  -10.76   -4.95
   -0.03  -11.89    1.26
    8.97   -8.13    7.73
    0.95  -14.47    0.51
    3.06  -11.57   -7.45
   -4.85  -12.44   -1.87
   -3.59  -13.16    5.89
    9.18  -11.22    5.77
    0.94  -11.51   -0.19
    2.52  -11.88    3.65
   -1.90  -12.62    4.62
    9.47  -10.98   -0.41
   -6.08  -12.13   -1.92
   -2.57  -14.27    4.21
   10.03   -9.44   -4.47
    1.91  -10.94    3.32
    4.54  -10.13    5.59
   -1.64  -12.20    2.60
    2.30  -11.29   -6.85
   -3.58  -13.28    8.46
    3.47  -12.38   -3.46
   -1.41  -14.43    7.01
    5.59  -11.90    3.83
   -6.45  -11.90    7.30
    5.54  -11.48   -1.78
   11.33   -9.05   -3.96
    3.34  -10.64   -6.33
    9.93  -10.57    4.13
    6.24  -10.39   -6.94
   -3.51  -14.07   -1.93
   -2.43  -12.67   -2.92
   10.00  -10.50    7.22
   -3.12  -14.16    9.44
    8.53   -8.59    6.76
   -5.85  -13.27    7.57
    6.91  -10.77    7.05
    3.15  -10.84    2.53
   -6.08  -12.37    0.68
   -1.05  -11.16   -4.64
    8.10   -9.67   -7.37
    1.67  -14.40    1.20
   10.53   -8.99   -9.09
    6.82   -9.60   -7.17
    2.93  -13.58   -4.23
    5.94  -11.13    2.76
    1.60  -11.63    1.18
    4.09  -10.00    1.04
   -7.01  -12.69   -9.22
   -3.35  -12.32    8.28
    3.23  -14.14   -6.72
    4.68  -13.72   -5.39
   -1.48  -11.85    9.50
    7.14  -12.62    6.07
    5.36  -12.48   -3.78
    1.37  -14.44    2.91
    2.27  -13.09   -2.64
   -4.34  -13.05    6.54
   -1.71  -12.75    6.18
    1.73  -13.74    8.44
    1.09  -13.47    6.31
   -1.37  -12.00   -4.19
    3.75  -13.28   -7.84
    2.08  -12.63   -8.85
    8.55  -10.72    6.50
   -4.53  -12.50    1.20
    1.10  -11.93    4.41
    4.73  -10.93   -2.01
   -0.30  -12.81   -5.09
   -3.92  -13.96    2.92
   -2.11  -13.59    4.77
   -1.92  -11.24    5.52
   -4.42  -13.81    8.54
    9.73   -8.80    3.88
    2.95  -11.94   -4.76
    0.46  -10.47    6.90
    6.36  -11.18   -8.57
    9.23  -10.34    0.97
   -1.18  -10.71   -9.28
    8.04   -9.90    1.76
    0.81  -13.93   -0.32
    8.28  -10.79   -8.75
    5.21  -11.02   -0.22
   -3.25  -12.20   -6.35
    9.87  -10.48   -1.17
   -6.60  -12.03   -8.51
    3.92  -10.22    9.38
   -3.68  -12.01   -5.47
   -0.06  -11.88    3.41
    6.78  -10.43   -0.64
    1.29  -12.12    8.87
   -7.79  -11.35    8.02
    2.90  -11.16   -1.21
    3.49  -12.70    2.50
    2.99  -14.19   -5.74
    6.31  -10.27    1.16
    9.83   -9.58   -1.59
    2.54  -12.00   -9.50
    6.58  -10.89    9.50
   10.37  -10.13   -5.10
   -0.87  -12.68    0.13
    1.78  -14.39   -6.83
   -3.71  -14.02    7.80
   -0.77  -14.48   -1.86
    5.16  -12.40   -1.83
   -0.88  -13.92    7.99
   10.74   -8.75    9.42
    3.39  -13.88   -9.50
    1.92  -12.07   -5.15
    6.27  -11.30    7.60
   -3.60  -12.78   -7.68
    2.71  -13.45   -7.32
   -1.22  -13.57   -0.15
   11.08   -9.35   -2.99
    5.10  -10.51    6.32
    2.26  -10.43    7.30
    9.28  -11.14   -3.99
    5.33  -11.78   -0.85
   -2.01  -14.36    2.55
   -4.41  -12.82   -3.01
    4.73  -10.25   -5.30
    2.19  -12.52    8.63
    7.46   -9.92   -5.49
    6.43  -10.51   -9.31
   -3.24  -11.11    8.18
   -0.93  -12.62   -9.50
    7.26   -8.85    5.18
   -0.62  -13.51   -2.08
   -5.33  -11.82   -5.41
    9.43   -8.83    1.66
    6.84   -9.43    1.01
   -0.34  -12.81    4.82
   -7.64  -12.32   -6.17
   -4.03  -13.91   -1.05
    0.91  -11.00    6.17
    9.96   -9.64    7.73
   -5.20  -12.92   -7.30
    1.40  -11.80   -1.03
    9.80   -9.88    8.76
   -2.09  -10.80    9.50
   -7.96  -12.12   -4.87
   10.23  -10.28   -3.33
   -3.86  -12.26    9.14
   -0.01  -10.58   -9.50
   -1.45  -14.43   -5.04
    4.63  -11.70    5.26
    2.53  -13.54   -6.34
   -0.17  -11.25    6.36
   -0.40  -13.80   -7.18
   -4.47  -13.79   -1.97
   -5.95  -12.32    2.84
    7.69   -9.64    0.53
    2.72  -13.58    4.78
   -1.67  -13.06   -7.58
    4.95  -11.36    4.37
   -4.58  -11.26    7.21
    1.03  -12.94   -9.40
    7.94   -9.32   -9.32
    5.26  -11.02    3.49
   -1.72  -13.13    2.25
    3.38  -10.31   -8.30
    9.04  -10.36   -1.92
   -7.78  -12.24    8.96
    2.89  -11.62    8.90
    3.09  -11.94    1.37
   -1.42  -14.43   -9.50
   -1.31  -12.33   -8.16
    4.88  -13.65    7.18
   12.32   -7.65    6.00
    5.68  -11.87    5.79
   -1.74  -13.20   -9.31
    7.15  -12.62    4.53
    2.24  -12.93   -5.60
    4.21  -12.73   -1.75
   11.54   -8.78   -6.92
   -4.71  -12.19   -7.79
   -7.39  -12.47    2.95
   -3.42  -12.34    5.34
   -4.30  -13.78   -5.84
    6.22  -13.07   -6.14
    8.59  -11.68    5.11
   -4.99  -11.51    1.74
    3.08  -12.50   -8.82
   -3.30  -12.06   -8.80
    4.88  -12.68   -0.91
    1.84  -12.09    2.94
   10.41  -10.09   -7.85
    9.56   -8.75   -8.36
   -2.62  -10.89   -6.44
    4.33  -11.97    7.96
    8.39  -10.84    3.60
    6.69   -9.38    7.94
    6.14  -11.37   -6.80
   -3.64  -13.06    0.27
   -2.67  -13.03    6.25
   10.78   -9.70    8.63
    5.43  -12.39   -6.22
   -0.87  -11.06    9.50
   -4.97  -13.01    2.24
    3.34  -10.62    0.80
    3.81  -11.77    0.70
    9.00   -9.56    7.99
    5.76  -11.37   -4.12
    6.54   -9.71    5.47
   -0.61  -13.64    5.31
   -8.84  -11.49    7.75
    1.84  -12.37   -1.71
    6.35  -11.16   -4.93
    7.87   -9.34    6.84
    3.21  -13.57   -0.49
    5.38  -13.47   -7.95
    7.35   -9.97    7.47
    4.13  -13.90    6.56
    3.24  -14.13   -7.83
    2.83  -12.82    1.77
    7.20  -12.59    7.50
    6.90  -10.73    3.02
    5.28  -10.72   -1.18
   11.49   -7.89    2.12
    3.89  -11.68    8.84
    7.38   -9.81    4.94
    7.15  -12.62   -6.49
    2.76  -12.77   -1.66
   -6.79  -12.12    9.04
    4.04  -11.78   -7.49
    8.50  -10.11    4.88
    7.67  -10.29   -0.22
   -7.81  -12.22    0.03
    0.82  -11.61   -7.65
    6.71  -10.21   -3.70
    3.85  -11.11   -9.08
    9.75   -9.41   -3.45
   -5.77  -13.30    2.88
   -3.65  -11.78   -7.71
    1.46  -12.18   -8.16
    3.46  -10.81   -4.04
    3.63  -12.97    1.19
    3.40  -12.88   -4.77
   -4.34  -11.54   -4.49
   11.71   -8.55   -1.63
    4.65  -12.15    3.61
    8.43   -8.90    5.75
   -0.93  -13.00   -6.91
   -2.84  -13.32    4.07
    3.01  -11.25   -2.20
    0.34  -13.65    0.57
   -1.89  -14.37   -0.28
    4.43  -11.77   -1.56
    8.86  -10.20    8.75
   -2.02  -13.46    0.44
   -6.35  -10.91    7.17
   -0.95  -14.47    4.07
   -2.69  -12.79    0.13
    8.58  -10.54   -0.55
    4.79  -11.59   -3.96
   10.68   -8.44   -7.29
   10.25   -9.48    6.06
    0.40  -12.18    5.08
    4.60  -10.92   -7.76
    1.55  -11.93   -7.01
   -0.38  -10.86    7.26
   -0.47  -11.79    0.37
    4.14  -12.90   -4.10
    0.65  -14.49    7.48
   -4.00  -13.94   -4.90
    1.54  -12.09   -9.50
   -3.27  -13.36   -0.61
   -5.02  -12.54    4.20
    2.27  -11.92   -6.08
    4.34  -10.70    3.71
    6.84   -9.88   -2.54
    8.30  -10.94    9.12
   -4.90  -11.58    5.15
   -7.11  -12.64   -7.01
    2.04  -10.48    9.50
    6.92  -11.82    9.50
    7.12  -10.76   -4.43
    4.22  -13.87    9.50
   12.28   -7.70    9.50
   -0.78  -11.36    2.96
   -5.58  -13.39    9.31
    7.78  -11.36   -7.76
   -0.38  -11.82   -4.98
   -2.14  -11.08    7.96
    5.46  -12.87   -7.15
   -6.38  -11.97   -9.50
    7.63  -11.41   -3.87
    3.52  -13.17    9.44
   -3.04  -12.21   -1.52
   -3.54  -14.04    4.32
    8.63   -9.58    4.05
    2.50  -11.00   -3.82
    4.92  -12.03   -4.85
   -1.30  -13.91   -7.96
    8.75   -9.87   -9.15
    2.06  -11.42   -0.38
    7.29  -10.69   -2.14
    9.48   -9.84    6.67
   -1.51  -12.35   -2.70
   -3.61  -11.42   -9.50
    6.21  -11.07   -1.16
    8.11  -12.02    0.29
    3.92  -11.48   -3.45
    0.25  -10.88   -8.02
    8.41  -11.81    8.62
   10.07  -10.43    5.80
    4.37  -10.94   -4.68
   12.44   -7.44    5.03
    0.60  -11.80    6.69
    9.55   -9.76    3.68
[...]
POINT_DATA 2000
SCALARS radius float
LOOKUP_TABLE default
  0.500000000000000     
  0.500000000000000     
  0.500000000000000     
  0.500000000000000     
  0.500000000000000     
  0.500000000000000     
  0.500000000000000     
  0.500000000000000     
  0.500000000000000     
  0.500000000000000     
  0.500000000000000     
  0.500000000000000     
  0.500000000000000     
  0.500000000000000     
  0.500000000000000     
  0.500000000000000     
  0.500000000000000     
  0.500000000000000     
  0.500000000000000     
  0.500000000000000     
  0.500000000000000     
  0.500000000000000     
  0.500000000000000     
  0.500000000000000     
  0.500000000000000     
  0.500000000000000     
  0.500000000000000     
  0.500000000000000     
  0.500000000000000     
  0.500000000000000     
  0.500000000000000     
  0.500000000000000     
  0.500000000000000     
  0.500000000000000     
  0.500000000000000     
  0.500000000000000     
  0.500000000000000     
  0.500000000000000     
  0.500000000000000     
  0.500000000000000     
  0.500000000000000     
  0.500000000000000     
  0.500000000000000     
  0.500000000000000     
  0.500000000000000     
  0.500000000000000     
  0.500000000000000     
  0.500000000000000     
  0.500000000000000     
  0.500000000000000     
  0.500000000000000     
  0.500000000000000     
  0.500000000000000     
  0.500000000000000     
  0.500000000000000     
  0.500000000000000     
  0.500000000000000     
  0.500000000000000     
  0.500000000000000     
  0.500000000000000     
  0.500000000000000     
  0.500000000000000     
  0.500000000000000     
  0.500000000000000     
  0.500000000000000     
  0.500000000000000     
  0.500000000000000     
  0.500000000000000     
  0.500000000000000     
  0.500000000000000     
  0.500000000000000     
  0.500000000000000     
  0.500000000000000     
  0.500000000000000     
  0.500000000000000     
  0.500000000000000     
  0.500000000000000     
  0.500000000000000     
  0.500000000000000     
  0.500000000000000     
  0.500000000000000     
  0.500000000000000     
  0.500000000000000     
  0.500000000000000     
  0.500000000000000     
  0.500000000000000     
  0.500000000000000     
  0.500000000000000     
  0.500000000000000     
  0.500000000000000     
  0.500000000000000     
  0.500000000000000     
  0.500000000000000     
  0.500000000000000     
  0.500000000000000     
  0.500000000000000     
  0.500000000000000     
  0.500000000000000     
  0.500000000000000     
  0.500000000000000     
  0.500000000000000     
  0.500000000000000     
  0.500000000000000     
  0.500000000000000     
  0.500000000000000     
  0.500000000000000     
  0.500000000000000     
  0.500000000000000     
  0.500000000000000     
  0.500000000000000     
  0.500000000000000     
  0.500000000000000     
  0.500000000000000     
  0.500000000000000     
  0.500000000000000     
  0.500000000000000     
  0.500000000000000     
  0.500000000000000     
  0.500000000000000     
  0.500000000000000     
  0.500000000000000     
  0.500000000000000     
  0.500000000000000     
  0.500000000000000     
  0.500000000000000     
  0.500000000000000     
  0.500000000000000     
  0.500000000000000     
  0.500000000000000     
  0.500000000000000     
  0.500000000000000     
  0.500000000000000     
  0.500000000000000     
  0.500000000000000     
  0.500000000000000     
  0.500000000000000     
  0.500000000000000     
  0.500000000000000     
  0.500000000000000     
  0.500000000000000     
  0.500000000000000     
  0.500000000000000     
  0.500000000000000     
  0.500000000000000     
  0.500000000000000     
  0.500000000000000     
  0.500000000000000     
  0.500000000000000     
  0.500000000000000     
  0.500000000000000     
  0.500000000000000     
  0.500000000000000     
  0.500000000000000     
  0.500000000000000     
  0.500000000000000     
  0.500000000000000     
  0.500000000000000     
  0.500000000000000     
  0.500000000000000     
  0.500000000000000     
  0.500000000000000     
  0.500000000000000     
  0.500000000000000     
  0.500000000000000     
  0.500000000000000     
  0.500000000000000     
  0.500000000000000     
  0.500000000000000     
  0.500000000000000     
  0.500000000000000     
  0.500000000000000     
  0.500000000000000     
  0.500000000000000     
  0.500000000000000     
  0.500000000000000     
  0.500000000000000     
  0.500000000000000     
  0.500000000000000     
  0.500000000000000     
  0.500000000000000     
  0.500000000000000     
  0.500000000000000     
  0.500000000000000     
  0.500000000000000     
  0.500000000000000     
  0.500000000000000     
  0.500000000000000     
  0.500000000000000     
  0.500000000000000     
  0.500000000000000     
  0.500000000000000     
  0.500000000000000     
  0.500000000000000     
  0.500000000000000     
  0.500000000000000     
  0.500000000000000     
  0.500000000000000     
  0.500000000000000     
  0.500000000000000     
  0.500000000000000     
  0.500000000000000     
  0.500000000000000     
  0.500000000000000     
  0.500000000000000     
  0.500000000000000     
  0.500000000000000     
  0.500000000000000     
  0.500000000000000     
  0.500000000000000     
  0.500000000000000     
  0.500000000000000     
  0.500000000000000     
  0.500000000000000     
  0.500000000000000     
  0.500000000000000     
  0.500000000000000     
  0.500000000000000     
  0.500000000000000     
  0.500000000000000     
  0.500000000000000     
  0.500000000000000     
  0.500000000000000     
  0.500000000000000     
  0.500000000000000     
  0.500000000000000     
  0.500000000000000     
  0.500000000000000     
  0.500000000000000     
  0.500000000000000     
  0.500000000000000     
  0.500000000000000     
  0.500000000000000     
  0.500000000000000     
  0.500000000000000     
  0.500000000000000     
  0.500000000000000     
  0.500000000000000     
  0.500000000000000     
  0.500000000000000     
  0.500000000000000     
  0.500000000000000     
  0.500000000000000     
  0.500000000000000     
  0.500000000000000     
  0.500000000000000     
  0.500000000000000     
  0.500000000000000     
  0.500000000000000     
  0.500000000000000     
  0.500000000000000     
  0.500000000000000     
  0.500000000000000     
  0.500000000000000     
  0.500000000000000     
  0.500000000000000     
  0.500000000000000     
  0.500000000000000     
  0.500000000000000     
  0.500000000000000     
  0.500000000000000     
  0.500000000000000     
  0.500000000000000     
  0.500000000000000     
  0.500000000000000     
  0.500000000000000     
  0.500000000000000     
  0.500000000000000     
  0.500000000000000     
  0.500000000000000     
  0.500000000000000     
  0.500000000000000     
  0.500000000000000     
  0.500000000000000     
  0.500000000000000     
  0.500000000000000     
  0.500000000000000     
  0.500000000000000     
  0.500000000000000     
  0.500000000000000     
  0.500000000000000     
  0.500000000000000     
  0.500000000000000     
  0.500000000000000     
  0.500000000000000     
  0.500000000000000     
  0.500000000000000     
  0.500000000000000     
  0.500000000000000     
  0.500000000000000     
  0.500000000000000     
  0.500000000000000     
  0.500000000000000     
  0.500000000000000     
  0.500000000000000     
  0.500000000000000     
  0.500000000000000     
  0.500000000000000     
  0.500000000000000     
  0.500000000000000     
  0.500000000000000     
  0.500000000000000     
  0.500000000000000     
  0.500000000000000     
  0.500000000000000     
  0.500000000000000     
  0.500000000000000     
  0.500000000000000     
  0.500000000000000     
  0.500000000000000     
  0.500000000000000     
  0.500000000000000     
  0.500000000000000     
  0.500000000000000     
  0.500000000000000     
  0.500000000000000     
  0.500000000000000     
  0.500000000000000     
  0.500000000000000     
  0.500000000000000     
  0.500000000000000     
  0.500000000000000     
  0.500000000000000     
  0.500000000000000     
  0.500000000000000     
  0.500000000000000     
  0.500000000000000     
  0.500000000000000     
  0.500000000000000     
  0.500000000000000     
  0.500000000000000     
  0.500000000000000     
  0.500000000000000     
  0.500000000000000     
  0.500000000000000     
  0.500000000000000     
  0.500000000000000     
  0.500000000000000     
  0.500000000000000     
  0.500000000000000     
  0.500000000000000     
  0.500000000000000     
  0.500000000000000     
  0.500000000000000     
  0.500000000000000     
  0.500000000000000     
  0.500000000000000     
  0.500000000000000     
  0.500000000000000     
  0.500000000000000     
  0.500000000000000     
  0.500000000000000     
  0.500000000000000     
  0.500000000000000     
  0.500000000000000     
  0.500000000000000     
  0.500000000000000     
  0.500000000000000     
  0.500000000000000     
  0.500000000000000     
  0.500000000000000     
  0.500000000000000     
  0.500000000000000     
  0.500000000000000     
  0.500000000000000     
  0.500000000000000     
  0.500000000000000     
  0.500000000000000     
  0.500000000000000     
  0.500000000000000     
  0.500000000000000     
  0.500000000000000     
  0.500000000000000     
  0.500000000000000     
  0.500000000000000     
  0.500000000000000     
  0.500000000000000     
  0.500000000000000     
  0.500000000000000     
  0.500000000000000     
  0.500000000000000     
  0.500000000000000     
  0.500000000000000     
  0.500000000000000     
  0.500000000000000     
  0.500000000000000     
  0.500000000000000     
  0.500000000000000     
  0.500000000000000     
  0.500000000000000     
  0.500000000000000     
  0.500000000000000     
  0.500000000000000     
  0.500000000000000     
  0.500000000000000     
  0.500000000000000     
  0.500000000000000     
  0.500000000000000     
  0.500000000000000     
  0.500000000000000     
  0.500000000000000     
  0.500000000000000     
  0.500000000000000     
  0.500000000000000     
  0.500000000000000     
  0.500000000000000     
  0.500000000000000     
  0.500000000000000     
  0.500000000000000     
  0.500000000000000     
  0.500000000000000     
  0.500000000000000     
  0.500000000000000     
  0.500000000000000     
  0.500000000000000     
  0.500000000000000     
  0.500000000000000     
  0.500000000000000     
  0.500000000000000     
  0.500000000000000     
  0.500000000000000     
  0.500000000000000     
  0.500000000000000     
  0.500000000000000     
  0.500000000000000     
  0.500000000000000     
  0.500000000000000     
  0.500000000000000     
  0.500000000000000     
  0.500000000000000     
  0.500000000000000     
  0.500000000000000     
  0.500000000000000     
  0.500000000000000     
  0.500000000000000     
  0.500000000000000     
  0.500000000000000     
  0.500000000000000     
  0.500000000000000     
  0.500000000000000     
  0.500000000000000     
  0.500000000000000     
  0.500000000000000     
  0.500000000000000     
  0.500000000000000     
  0.500000000000000     
  0.500000000000000     
  0.500000000000000     
  0.500000000000000     
  0.500000000000000     
  0.500000000000000     
  0.500000000000000     
  0.500000000000000     
  0.500000000000000     
  0.500000000000000     
  0.500000000000000     
  0.500000000000000     
  0.500000000000000     
  0.500000000000000     
  0.500000000000000     
  0.500000000000000     
  0.500000000000000     
  0.500000000000000     
  0.500000000000000     
  0.500000000000000     
  0.500000000000000     
  0.500000000000000     
  0.500000000000000     
  0.500000000000000     
  0.500000000000000     
  0.500000000000000     
  0.500000000000000     
  0.500000000000000     
  0.500000000000000     
  0.500000000000000     
  0.500000000000000     
  0.500000000000000     
  0.500000000000000     
  0.500000000000000     
  0.500000000000000     
  0.500000000000000     
  0.500000000000000     
  0.500000000000000     
  0.500000000000000     
  0.500000000000000     
  0.500000000000000     
  0.500000000000000     
  0.500000000000000     
  0.500000000000000     
  0.500000000000000     
  0.500000000000000     
  0.500000000000000     
  0.500000000000000     
  0.500000000000000     
  0.500000000000000     
  0.500000000000000     
  0.500000000000000     
  0.500000000000000     
  0.500000000000000     
  0.500000000000000     
  0.500000000000000     
  0.500000000000000     
  0.500000000000000     
  0.500000000000000     
  0.500000000000000     
  0.500000000000000     
  0.500000000000000     
  0.500000000000000     
  0.500000000000000     
  0.500000000000000     
  0.500000000000000     
  0.500000000000000     
  0.500000000000000     
  0.500000000000000     
  0.500000000000000     
  0.500000000000000     
  0.500000000000000     
  0.500000000000000     
  0.500000000000000     
  0.500000000000000     
  0.500000000000000     
  0.500000000000000     
  0.500000000000000     
  0.500000000000000     
  0.500000000000000     
  0.500000000000000     
  0.500000000000000     
  0.500000000000000     
  0.500000000000000     
  0.500000000000000     
  0.500000000000000     
  0.500000000000000     
  0.500000000000000     
  0.500000000000000     
  0.500000000000000     
  0.500000000000000     
  0.500000000000000     
  0.500000000000000     
  0.500000000000000     
  0.500000000000000     
  0.500000000000000     
  0.500000000000000     
  0.500000000000000     
  0.500000000000000     
  0.500000000000000     
  0.500000000000000     
  0.500000000000000     
  0.500000000000000     
  0.500000000000000     
  0.500000000000000     
  0.500000000000000     
  0.500000000000000     
  0.500000000000000     
  0.500000000000000     
  0.500000000000000     
  0.500000000000000     
  0.500000000000000     
  0.500000000000000     
  0.500000000000000     
  0.500000000000000     
  0.500000000000000     
  0.500000000000000     
  0.500000000000000     
  0.500000000000000     
  0.500000000000000     
  0.500000000000000     
  0.500000000000000     
  0.500000000000000     
  0.500000000000000     
  0.500000000000000     
  0.500000000000000     
  0.500000000000000     
  0.500000000000000     
  0.500000000000000     
  0.500000000000000     
  0.500000000000000     
  0.500000000000000     
  0.500000000000000     
  0.500000000000000     
  0.500000000000000     
  0.500000000000000     
  0.500000000000000     
  0.500000000000000     
  0.500000000000000     
  0.500000000000000     
  0.500000000000000     
  0.500000000000000     
  0.500000000000000     
  0.500000000000000     
  0.500000000000000     
  0.500000000000000     
  0.500000000000000     
  0.500000000000000     
  0.500000000000000     
  0.500000000000000     
  0.500000000000000     
  0.500000000000000     
  0.500000000000000     
  0.500000000000000     
  0.500000000000000     
  0.500000000000000     
  0.500000000000000     
  0.500000000000000     
  0.500000000000000     
  0.500000000000000     
  0.500000000000000     
  0.500000000000000     
  0.500000000000000     
  0.500000000000000     
  0.500000000000000     
  0.500000000000000     
  0.500000000000000     
  0.500000000000000     
  0.500000000000000     
  0.500000000000000     
  0.500000000000000     
  0.500000000000000     
  0.500000000000000     
  0.500000000000000     
  0.500000000000000     
  0.500000000000000     
  0.500000000000000     
  0.500000000000000     
  0.500000000000000     
  0.500000000000000     
  0.500000000000000     
  0.500000000000000     
  0.500000000000000     
  0.500000000000000     
  0.500000000000000     
  0.500000000000000     
  0.500000000000000     
  0.500000000000000     
  0.500000000000000     
  0.500000000000000     
  0.500000000000000     
  0.500000000000000     
  0.500000000000000     
  0.500000000000000     
  0.500000000000000     
  0.500000000000000     
  0.500000000000000     
  0.500000000000000     
  0.500000000000000     
  0.500000000000000     
  0.500000000000000     
  0.500000000000000     
  0.500000000000000     
  0.500000000000000     
  0.500000000000000     
  0.500000000000000     
  0.500000000000000     
  0.500000000000000     
  0.500000000000000     
  0.500000000000000     
  0.500000000000000     
  0.500000000000000     
  0.500000000000000     
  0.500000000000000     
  0.500000000000000     
  0.500000000000000     
  0.500000000000000     
  0.500000000000000     
  0.500000000000000     
  0.500000000000000     
  0.500000000000000     
  0.500000000000000     
  0.500000000000000     
  0.500000000000000     
  0.500000000000000     
  0.500000000000000     
  0.500000000000000     
  0.500000000000000     
  0.500000000000000     
  0.500000000000000     
  0.500000000000000     
  0.500000000000000     
  0.500000000000000     
  0.500000000000000     
  0.500000000000000     
  0.500000000000000     
  0.500000000000000     
  0.500000000000000     
  0.500000000000000     
  0.500000000000000     
  0.500000000000000     
  0.500000000000000     
  0.500000000000000     
  0.500000000000000     
  0.500000000000000     
  0.500000000000000     
  0.500000000000000     
  0.500000000000000     
  0.500000000000000     
  0.500000000000000     
  0.500000000000000     
  0.500000000000000     
  0.500000000000000     
  0.500000000000000     
  0.500000000000000     
  0.500000000000000     
  0.500000000000000     
  0.500000000000000     
  0.500000000000000     
  0.500000000000000     
  0.500000000000000     
  0.500000000000000     
  0.500000000000000     
  0.500000000000000     
  0.500000000000000     
  0.500000000000000     
  0.500000000000000     
  0.500000000000000     
  0.500000000000000     
  0.500000000000000     
  0.500000000000000     
  0.500000000000000     
  0.500000000000000     
  0.500000000000000     
  0.500000000000000     
  0.500000000000000     
  0.500000000000000     
  0.500000000000000     
  0.500000000000000     
  0.500000000000000     
  0.500000000000000     
  0.500000000000000     
  0.500000000000000     
  0.500000000000000     
  0.500000000000000     
  0.500000000000000     
  0.500000000000000     
  0.500000000000000     
  0.500000000000000     
  0.500000000000000     
  0.500000000000000     
  0.500000000000000     
  0.500000000000000     
  0.500000000000000     
  0.500000000000000     
  0.500000000000000     
  0.500000000000000     
  0.500000000000000     
  0.500000000000000     
  0.500000000000000     
  0.500000000000000     
  0.500000000000000     
  0.500000000000000     
  0.500000000000000     
  0.500000000000000     
  0.500000000000000     
  0.500000000000000     
  0.500000000000000     
  0.500000000000000     
  0.500000000000000     
  0.500000000000000     
  0.500000000000000     
  0.500000000000000     
  0.500000000000000     
  0.500000000000000     
  0.500000000000000     
  0.500000000000000     
  0.500000000000000     
  0.500000000000000     
  0.500000000000000     
  0.500000000000000     
  0.500000000000000     
  0.500000000000000     
  0.500000000000000     
  0.500000000000000     
  0.500000000000000     
  0.500000000000000     
  0.500000000000000     
  0.500000000000000     
  0.500000000000000     
  0.500000000000000     
  0.500000000000000     
  0.500000000000000     
  0.500000000000000     
  0.500000000000000     
  0.500000000000000     
  0.500000000000000     
  0.500000000000000     
  0.500000000000000     
  0.500000000000000     
  0.500000000000000     
  0.500000000000000     
  0.500000000000000     
  0.500000000000000     
  0.500000000000000     
  0.500000000000000     
  0.500000000000000     
  0.500000000000000     
  0.500000000000000     
  0.500000000000000     
  0.500000000000000     
  0.500000000000000     
  0.500000000000000     