# vtk DataFile Version 5.1
Data.vtk
ASCII
DATASET UNSTRUCTURED_GRID
 
POINTS 2000 float
    3.49    7.56    6.94
   11.29    8.36    6.65
   -2.42  -14.20    7.00
    5.33    3.40   -9.31
  -13.40   -1.04    7.11
   -1.23  -13.18   -8.53
    0.86   14.43   -8.91
   -4.80   -9.73   -9.50
   -2.09   13.76   -8.20
   12.23   -6.63    1.72
    2.54    8.58    8.28
    1.03  -12.00   -7.15
   -0.20   10.63    7.85
   -1.63  -12.26    5.36
   12.86   -0.13   -7.33
   12.39    0.36    8.53
    0.13   14.44    8.07
    2.37  -13.25    7.95
   14.50   -0.08    9.50
    1.31  -10.65   -5.32
   -4.51  -11.91   -2.93
   13.58   -4.60    8.80
   -4.12    8.42   -9.43
   10.19  -10.31   -6.96
   12.74   -4.78    3.82
  -12.16    2.09   -6.14
    3.76  -14.01    9.50
    6.43   -7.13    9.50
  -11.13    7.15    8.73
  -12.28   -7.72    4.80
   -0.04  -14.50   -2.05
   13.07    0.50    3.79
   -2.66   13.43    3.12
    6.52   -4.87   -6.17
  -11.57   -8.74   -5.40
    8.28   -9.72    8.60
    8.14   -5.51    9.50
   -4.62   -8.71    6.73
   -7.02   11.83    5.58
   -0.09  -12.53    7.20
   -1.54   14.20    6.56
  -10.68   -9.81   -2.19
  -10.59    8.96   -9.49
    5.24   -9.01    6.31
  -13.71    0.52   -9.44
   -6.60   12.86    8.84
    9.40    6.73    7.66
    3.04   11.88   -5.35
    8.72   10.67    9.46
    4.29  -12.09   -9.49
    9.57   -8.46   -6.62
  -12.78   -4.92    9.47
   -4.13    9.83    9.33
   13.44   -1.99    4.23
  -10.39    6.16    2.57
   13.99   -3.21    2.32
   -1.82    1.02   -9.35
   -9.35   -5.50    9.01
   -5.89   12.90   -7.47
  -13.78    2.49   -4.82
   -8.55   11.23   -0.09
   -9.75    7.05    7.91
    8.44    6.74    9.50
   12.74   -6.73    7.27
   13.45   -5.18    7.24
    1.92    0.62    8.27
    8.50   -1.80   -0.66
   13.08   -1.10    7.98
    6.24  -13.08   -0.04
    2.78    6.05   -9.35
  -10.23   -8.79    1.38
    7.58  -11.51   -8.30
   -5.75  -12.00   -6.46
    3.55   12.68    7.81
   12.18    4.26    8.81
   -5.79  -13.03   -6.37
    2.63   13.72    9.49
   -7.33    9.85   -9.50
    9.67    4.54    8.45
   -1.34   13.49    0.95
    1.74   14.18    9.47
   12.40    1.52    8.81
   13.25   -2.56    1.65
   -2.73    4.08    8.26
    7.47  -12.42   -8.73
    9.45    0.24   -9.44
  -11.19   -8.98    0.68
   12.30   -4.10   -1.35
    5.91    6.71    8.83
    7.56   12.28    9.29
   -4.07  -13.38    0.80
    6.08   -9.42   -9.08
  -14.24    1.42   -1.08
   -7.77  -10.84    8.06
   12.57   -7.23    8.36
    0.63   14.05    5.74
   13.93   -0.32    2.90
   -7.89  -10.54    7.11
   -0.28   11.29   -1.27
  -11.45    8.90   -8.69
   -5.23  -13.52    5.94
   14.43    0.24   -8.73
   -2.29   11.30    9.40
   -1.37   14.40    8.79
  -11.40   -5.42    8.08
    0.12   13.39   -9.50
   -5.82  -12.16    8.65
    7.60   -2.66   -9.50
   -3.07  -14.17    7.76
   11.85   -3.23    7.66
  -13.73   -4.62    8.94
   12.33   -7.63    1.17
    9.64    9.88   -3.23
   -3.29   12.27   -9.32
   14.08   -3.48    7.39
    7.24    7.33   -9.26
   -9.05    0.40   -8.54
   -8.07    2.90   -7.66
   13.02   -6.38    8.66
   -4.53  -13.77    9.50
    7.22   11.33    9.50
   -9.91  -10.59    8.26
    1.47    5.58    8.83
    0.10   12.87    8.63
  -12.97    4.92    2.04
   -5.99   11.47   -8.44
    5.98   10.87   -6.91
    5.93  -10.01    1.35
    6.64   12.51   -7.48
    1.62   14.15   -9.50
    2.85  -11.29   -3.50
   10.68    4.51    7.62
   -4.45  -10.22    8.72
    2.21   13.50    5.81
  -12.88   -6.66   -9.50
   -6.81  -10.55    9.50
    3.43  -13.30   -6.90
    5.60  -13.20   -4.21
   -6.82   -9.66    9.04
    9.85  -10.64    7.38
    8.21   -6.71   -4.86
   -3.40  -14.09    0.58
   -8.61    4.82   -8.09
   -8.88  -10.64    8.21
   -5.28  -11.49    6.66
    1.72  -13.61    8.61
    0.29  -13.52    8.00
   -5.96    6.58   -8.22
    4.48  -13.39   -7.92
   -1.90  -10.56   -8.86
   12.82   -3.98    8.57
  -12.61    3.27    7.75
    4.23    7.92    8.61
   14.46    1.03    2.65
   -5.56   -9.27   -8.31
   -9.66  -10.81    3.28
   -7.09   -9.95    5.93
  -10.48    7.25    9.49
   -6.49  -12.97    9.04
    8.13   11.62    8.79
    0.19   -7.82   -8.75
    3.07   13.95    6.56
    9.44   -8.60   -9.49
   13.74    3.92    3.85
   -3.78   11.02   -9.49
   12.11    5.92    8.69
   -1.79   -0.71   -6.95
   10.42   -8.67   -8.96
   13.64   -1.84    7.60
  -10.58    2.11   -8.57
   14.49   -0.47    1.57
  -13.25   -0.22   -8.60
   -2.70   12.06    5.82
  -11.05   -3.29   -9.36
   -9.49    8.36    9.47
   13.55    1.53    2.46
   -0.14   -1.18    8.44
  -13.99   -3.80    9.50
   -7.63    5.84    7.96
    6.70    0.24    6.92
    1.31  -14.44   -4.01
   11.62    4.00    7.35
   12.23    6.40    2.15
    4.33  -10.24   -9.44
    9.39   -8.78    9.42
   13.47    1.46   -7.96
   -8.89    7.67    7.99
    2.42  -14.01   -6.16
   -5.73  -13.13    8.41
   -5.73  -11.82   -3.09
    1.73    0.40   -6.54
   -1.84  -13.70    8.58
   13.50   -0.05    9.49
    3.12  -13.78   -9.49
   -6.98    6.42   -9.22
   10.36   -4.07    9.18
  -10.62   -9.11   -8.02
   -0.22  -11.84   -9.50
  -11.72   -3.30    1.55
   11.12    9.31   -5.97
    5.68    9.79    9.49
   -2.00   13.32    9.50
   13.52   -5.25   -3.33
   12.79    2.51   -0.82
   -9.62  -10.56    2.19
  -10.55   -9.95   -3.88
    5.67    2.96   -4.37
    1.61  -11.77    8.93
   14.05    3.36   -8.60
    2.61    9.14   -9.49
  -12.50    5.14    7.89
   -8.45   -5.69   -8.84
    1.42   12.71    8.36
    6.31   -3.42   -7.29
  -11.11    9.17   -7.79
   10.42    6.64    8.72
    7.25   11.35    7.63
   -6.29    9.05    8.13
  -14.17    1.08   -5.34
  -11.61   -7.47   -1.95
   -5.28   11.02    8.60
   14.14   -3.20    9.20
  -11.18   -9.23   -8.87
    0.30   12.24    6.54
   12.68   -4.77    9.44
  -12.04    6.61    5.51
  -14.37    1.49   -4.36
   13.04    6.08   -4.26
   -9.29   -8.52    9.50
   -7.29   11.80   -9.07
   -7.01  -12.69   -5.01
   10.18   -2.98    9.49
    5.50   -9.02   -7.72
   -3.11   12.25    2.63
   -3.88  -11.19   -8.89
  -12.53   -7.30   -2.33
  -14.49    0.25    9.31
    1.83   12.43    0.99
    4.44  -11.61    7.87
   -8.94   -8.18   -9.43
   11.42   -1.86    8.06
  -13.29    2.34    9.50
   -5.09    2.52   -4.19
    9.73    9.41   -1.59
    5.42   10.64    8.95
   -8.18   -9.35    4.72
   -5.37   11.97   -7.60
   10.78    9.31    0.99
  -10.78   -9.70    9.50
    8.15    2.24    8.72
    1.91    9.26    9.48
   -2.55  -14.27   -9.50
   -7.88    1.00   -9.49
    5.87  -13.21    7.48
   -3.45    3.86   -6.76
   10.51   -6.85    8.01
   -3.32  -11.87   -9.50
   10.40  -10.11    6.74
   -3.52    3.94   -9.50
    7.37    6.53    5.96
   11.36    9.02   -8.32
  -10.01    5.75   -2.16
  -13.43    5.19    8.27
  -11.27   -4.89    9.50
  -11.48   -8.36   -7.64
    7.30  -12.52   -6.86
   12.32   -7.64    7.46
  -14.05    0.53    7.18
    2.55  -11.35   -9.50
   -7.76   -0.99   -6.47
   13.81    0.58   -7.09
   11.82   -0.07    7.02
   12.09    1.55   -9.50
   12.44    7.45   -1.60
   -6.24   12.01   -2.31
    6.78  -10.49    9.37
   12.38   -0.64    8.53
    3.29   11.65    9.50
    9.82   -5.60   -9.46
  -13.94   -3.27   -1.36
   -7.14  -11.38    8.62
   13.46   -5.40    9.38
    7.98    3.61   -8.50
   -9.81   -3.42    9.50
  -13.25   -4.48    7.05
    5.28   11.86    7.87
   11.30   -6.10    6.72
   11.54   -3.65    9.48
   12.08    6.97   -7.24
   10.07    5.20    9.48
   -7.08   -6.00    7.79
  -14.04   -2.81    9.42
  -11.36    4.34    7.96
   11.58   -0.22   -9.50
    9.57    8.49    8.87
    0.95  -12.81    7.31
    6.04  -13.09   -8.02
   11.45   -0.99    8.89
    4.56  -13.32    6.71
    3.70  -14.02   -8.07
   -5.37    4.86    7.07
    8.72  -11.59    8.54
   11.32    3.49    9.45
   11.64    4.67    8.08
   12.50    7.03    8.69
    6.86    8.91    7.74
   12.29   -1.04    9.44
    9.29  -10.75   -8.13
    7.10   -4.92   -7.30
  -11.67   -7.45    9.50
    7.54   -3.77   -9.45
   13.32   -2.17    8.49
    9.27   10.15   -0.58
  -12.01    8.07    9.48
   -9.61   -4.92   -9.47
   11.00    7.26   -9.50
    6.66   -3.19   -9.46
   14.46   -1.03   -4.76
  -13.11   -4.41    8.04
  -11.06    7.60   -4.66
   -3.81    2.22   -9.40
   -0.46   13.37   -6.11
   10.65   -6.35    4.34
    6.25  -10.25   -6.62
  -11.25    4.62   -4.38
    5.50   13.17   -4.06
    5.53    9.68    7.81
    4.19   12.38    9.46
   -4.68  -10.88   -9.41
   -8.86  -11.48    5.25
    3.05   14.08    5.12
    7.10   -0.83    6.00
   -9.64  -10.83    0.78
   13.31    1.13   -5.18
   11.55   -5.23    9.49
  -11.51   -8.81   -0.32
  -13.54   -0.56    8.49
   -2.51  -13.28    4.25
  -12.70   -2.77   -0.56
    7.91    9.73    5.72
    9.55   -5.79   -7.11
   -0.36   13.97   -5.09
   14.36    0.90    9.38
   -8.91    3.85    9.25
    1.27   10.58   -9.39
   -0.85    0.45   -9.50
   -8.46    4.76    9.47
    1.91   -8.07   -6.18
    6.97  -11.99   -4.41
    0.08  -14.50    8.10
   -8.09  -11.67   -7.84
    4.12   -6.57   -9.41
  -10.48   -8.19    0.02
  -11.21   -8.16    8.22
   -8.59    9.28   -2.79
    1.99   12.17    3.08
   11.19    8.92   -9.46
   10.44   -8.93    9.33
  -12.95    0.43    9.23
  -12.79    1.04   -9.35
   -2.70   12.28    8.86
    8.68  -10.07    9.50
   12.40   -3.65   -8.02
    4.68  -13.36    9.47
   14.05    2.28    9.50
   -9.48    8.16    2.37
   -7.36  -12.49    9.28
    9.90   -4.13   -9.48
   -7.05    8.37   -9.34
  -12.16    1.49    9.15
    7.22  -11.57   -7.17
  -13.33   -1.00   -7.33
   11.34    5.12   -8.22
    3.81  -12.87    9.50
   -3.06   -9.58    8.95
   -8.89  -11.45    3.73
   12.79    4.66    8.12
   -5.08    7.74   -9.31
    1.71    8.78   -9.03
   -3.99  -13.41   -8.73
   12.30   -0.96   -9.50
    7.83  -10.98    5.43
    1.19   11.57   -0.95
   13.10    1.72    9.50
   -8.26   -4.07   -9.43
  -12.48   -0.47   -9.19
   13.21    0.00    5.95
    7.72    0.38    6.74
   -2.68    8.80   -8.80
   -8.14   11.28   -9.22
   10.37  -10.14    9.37
   13.43   -5.47    8.29
    2.43   12.24   -8.89
   13.06    6.19    9.49
   -6.94    5.42    9.29
   14.45   -0.24    7.95
[...]
POINT_DATA 2000
SCALARS radius float
LOOKUP_TABLE default
  0.500000000000000     
  0.500000000000000     
  0.500000000000000     
  0.500000000000000     
  0.500000000000000     
  0.500000000000000     
  0.500000000000000     
  0.500000000000000     
  0.500000000000000     
  0.500000000000000     
  0.500000000000000     
  0.500000000000000     
  0.500000000000000     
  0.500000000000000     
  0.500000000000000     
  0.500000000000000     
  0.500000000000000     
  0.500000000000000     
  0.500000000000000     
  0.500000000000000     
  0.500000000000000     
  0.500000000000000     
  0.500000000000000     
  0.500000000000000     
  0.500000000000000     
  0.500000000000000     
  0.500000000000000     
  0.500000000000000     
  0.500000000000000     
  0.500000000000000     
  0.500000000000000     
  0.500000000000000     
  0.500000000000000     
  0.500000000000000     
  0.500000000000000     
  0.500000000000000     
  0.500000000000000     
  0.500000000000000     
  0.500000000000000     
  0.500000000000000     
  0.500000000000000     
  0.500000000000000     
  0.500000000000000     
  0.500000000000000     
  0.500000000000000     
  0.500000000000000     
  0.500000000000000     
  0.500000000000000     
  0.500000000000000     
  0.500000000000000     
  0.500000000000000     
  0.500000000000000     
  0.500000000000000     
  0.500000000000000     
  0.500000000000000     
  0.500000000000000     
  0.500000000000000     
  0.500000000000000     
  0.500000000000000     
  0.500000000000000     
  0.500000000000000     
  0.500000000000000     
  0.500000000000000     
  0.500000000000000     
  0.500000000000000     
  0.500000000000000     
  0.500000000000000     
  0.500000000000000     
  0.500000000000000     
  0.500000000000000     
  0.500000000000000     
  0.500000000000000     
  0.500000000000000     
  0.500000000000000     
  0.500000000000000     
  0.500000000000000     
  0.500000000000000     
  0.500000000000000     
  0.500000000000000     
  0.500000000000000     
  0.500000000000000     
  0.500000000000000     
  0.500000000000000     
  0.500000000000000     
  0.500000000000000     
  0.500000000000000     
  0.500000000000000     
  0.500000000000000     
  0.500000000000000     
  0.500000000000000     
  0.500000000000000     
  0.500000000000000     
  0.500000000000000     
  0.500000000000000     
  0.500000000000000     
  0.500000000000000     
  0.500000000000000     
  0.500000000000000     
  0.500000000000000     
  0.500000000000000     
  0.500000000000000     
  0.500000000000000     
  0.500000000000000     
  0.500000000000000     
  0.500000000000000     
  0.500000000000000     
  0.500000000000000     
  0.500000000000000     
  0.500000000000000     
  0.500000000000000     
  0.500000000000000     
  0.500000000000000     
  0.500000000000000     
  0.500000000000000     
  0.500000000000000     
  0.500000000000000     
  0.500000000000000     
  0.500000000000000     
  0.500000000000000     
  0.500000000000000     
  0.500000000000000     
  0.500000000000000     
  0.500000000000000     
  0.500000000000000     
  0.500000000000000     
  0.500000000000000     
  0.500000000000000     
  0.500000000000000     
  0.500000000000000     
  0.500000000000000     
  0.500000000000000     
  0.500000000000000     
  0.500000000000000     
  0.500000000000000     
  0.500000000000000     
  0.500000000000000     
  0.500000000000000     
  0.500000000000000     
  0.500000000000000     
  0.500000000000000     
  0.500000000000000     
  0.500000000000000     
  0.500000000000000     
  0.500000000000000     
  0.500000000000000     
  0.500000000000000     
  0.500000000000000     
  0.500000000000000     
  0.500000000000000     
  0.500000000000000     
  0.500000000000000     
  0.500000000000000     
  0.500000000000000     
  0.500000000000000     
  0.500000000000000     
  0.500000000000000     
  0.500000000000000     
  0.500000000000000     
  0.500000000000000     
  0.500000000000000     
  0.500000000000000     
  0.500000000000000     
  0.500000000000000     
  0.500000000000000     
  0.500000000000000     
  0.500000000000000     
  0.500000000000000     
  0.500000000000000     
  0.500000000000000     
  0.500000000000000     
  0.500000000000000     
  0.500000000000000     
  0.500000000000000     
  0.500000000000000     
  0.500000000000000     
  0.500000000000000     
  0.500000000000000     
  0.500000000000000     
  0.500000000000000     
  0.500000000000000     
  0.500000000000000     
  0.500000000000000     
  0.500000000000000     
  0.500000000000000     
  0.500000000000000     
  0.500000000000000     
  0.500000000000000     
  0.500000000000000     
  0.500000000000000     
  0.500000000000000     
  0.500000000000000     
  0.500000000000000     
  0.500000000000000     
  0.500000000000000     
  0.500000000000000     
  0.500000000000000     
  0.500000000000000     
  0.500000000000000     
  0.500000000000000     
  0.500000000000000     
  0.500000000000000     
  0.500000000000000     
  0.500000000000000     
  0.500000000000000     
  0.500000000000000     
  0.500000000000000     
  0.500000000000000     
  0.500000000000000     
  0.500000000000000     
  0.500000000000000     
  0.500000000000000     
  0.500000000000000     
  0.500000000000000     
  0.500000000000000     
  0.500000000000000     
  0.500000000000000     
  0.500000000000000     
  0.500000000000000     
  0.500000000000000     
  0.500000000000000     
  0.500000000000000     
  0.500000000000000     
  0.500000000000000     
  0.500000000000000     
  0.500000000000000     
  0.500000000000000     
  0.500000000000000     
  0.500000000000000     
  0.500000000000000     
  0.500000000000000     
  0.500000000000000     
  0.500000000000000     
  0.500000000000000     
  0.500000000000000     
  0.500000000000000     
  0.500000000000000     
  0.500000000000000     
  0.500000000000000     
  0.500000000000000     
  0.500000000000000     
  0.500000000000000     
  0.500000000000000     
  0.500000000000000     
  0.500000000000000     
  0.500000000000000     
  0.500000000000000     
  0.500000000000000     
  0.500000000000000     
  0.500000000000000     
  0.500000000000000     
  0.500000000000000     
  0.500000000000000     
  0.500000000000000     
  0.500000000000000     
  0.500000000000000     
  0.500000000000000     
  0.500000000000000     
  0.500000000000000     
  0.500000000000000     
  0.500000000000000     
  0.500000000000000     
  0.500000000000000     
  0.500000000000000     
  0.500000000000000     
  0.500000000000000     
  0.500000000000000     
  0.500000000000000     
  0.500000000000000     
  0.500000000000000     
  0.500000000000000     
  0.500000000000000     
  0.500000000000000     
  0.500000000000000     
  0.500000000000000     
  0.500000000000000     
  0.500000000000000     
  0.500000000000000     
  0.500000000000000     
  0.500000000000000     
  0.500000000000000     
  0.500000000000000     
  0.500000000000000     
  0.500000000000000     
  0.500000000000000     
  0.500000000000000     
  0.500000000000000     
  0.500000000000000     
  0.500000000000000     
  0.500000000000000     
  0.500000000000000     
  0.500000000000000     
  0.500000000000000     
  0.500000000000000     
  0.500000000000000     
  0.500000000000000     
  0.500000000000000     
  0.500000000000000     
  0.500000000000000     
  0.500000000000000     
  0.500000000000000     
  0.500000000000000     
  0.500000000000000     
  0.500000000000000     
  0.500000000000000     
  0.500000000000000     
  0.500000000000000     
  0.500000000000000     
  0.500000000000000     
  0.500000000000000     
  0.500000000000000     
  0.500000000000000     
  0.500000000000000     
  0.500000000000000     
  0.500000000000000     
  0.500000000000000     
  0.500000000000000     
  0.500000000000000     
  0.500000000000000     
  0.500000000000000     
  0.500000000000000     
  0.500000000000000     
  0.500000000000000     
  0.500000000000000     
  0.500000000000000     
  0.500000000000000     
  0.500000000000000     
  0.500000000000000     
  0.500000000000000     
  0.500000000000000     
  0.500000000000000     
  0.500000000000000     
  0.500000000000000     
  0.500000000000000     
  0.500000000000000     
  0.500000000000000     
  0.500000000000000     
  0.500000000000000     
  0.500000000000000     
  0.500000000000000     
  0.500000000000000     
  0.500000000000000     
  0.500000000000000     
  0.500000000000000     
  0.500000000000000     
  0.500000000000000     
  0.500000000000000     
  0.500000000000000     
  0.500000000000000     
  0.500000000000000     
  0.500000000000000     
  0.500000000000000     
  0.500000000000000     
  0.500000000000000     
  0.500000000000000     
  0.500000000000000     
  0.500000000000000     
  0.500000000000000     
  0.500000000000000     
  0.500000000000000     
  0.500000000000000     
  0.500000000000000     
  0.500000000000000     
  0.500000000000000     
  0.500000000000000     
  0.500000000000000     
  0.500000000000000     
  0.500000000000000     
  0.500000000000000     
  0.500000000000000     
  0.500000000000000     
  0.500000000000000     
  0.500000000000000     
  0.500000000000000     
  0.500000000000000     
  0.500000000000000     
  0.500000000000000     
  0.500000000000000     
  0.500000000000000     
  0.500000000000000     
  0.500000000000000     
  0.500000000000000     
  0.500000000000000     
  0.500000000000000     
  0.500000000000000     
  0.500000000000000     
  0.500000000000000     
  0.500000000000000     
  0.500000000000000     
  0.500000000000000     
  0.500000000000000     
  0.500000000000000     
  0.500000000000000     
  0.500000000000000     
  0.500000000000000     
  0.500000000000000     
  0.500000000000000     
  0.500000000000000     
  0.500000000000000     
  0.500000000000000     
  0.500000000000000     
  0.500000000000000     
  0.500000000000000     
  0.500000000000000     
  0.500000000000000     
  0.500000000000000     
  0.500000000000000     
  0.500000000000000     
  0.500000000000000     
  0.500000000000000     
  0.500000000000000     
  0.500000000000000     
  0.500000000000000     
  0.500000000000000     
  0.500000000000000     
  0.500000000000000     
  0.500000000000000     
  0.500000000000000     
  0.500000000000000     
  0.500000000000000     
  0.500000000000000     
  0.500000000000000     
  0.500000000000000     
  0.500000000000000     
  0.500000000000000     
  0.500000000000000     
  0.500000000000000     
  0.500000000000000     
  0.500000000000000     
  0.500000000000000     
  0.500000000000000     
  0.500000000000000     
  0.500000000000000     
  0.500000000000000     
  0.500000000000000     
  0.500000000000000     
  0.500000000000000     
  0.500000000000000     
  0.500000000000000     
  0.500000000000000     
  0.500000000000000     
  0.500000000000000     
  0.500000000000000     
  0.500000000000000     
  0.500000000000000     
  0.500000000000000     
  0.500000000000000     
  0.500000000000000     
  0.500000000000000     
  0.500000000000000     
  0.500000000000000     
  0.500000000000000     
  0.500000000000000     
  0.500000000000000     
  0.500000000000000     
  0.500000000000000     
  0.500000000000000     
  0.500000000000000     
  0.500000000000000     
  0.500000000000000     
  0.500000000000000     
  0.500000000000000     
  0.500000000000000     
  0.500000000000000     
  0.500000000000000     
  0.500000000000000     
  0.500000000000000     
  0.500000000000000     
  0.500000000000000     
  0.500000000000000     
  0.500000000000000     
  0.500000000000000     
  0.500000000000000     
  0.500000000000000     
  0.500000000000000     
  0.500000000000000     
  0.500000000000000     
  0.500000000000000     
  0.500000000000000     
  0.500000000000000     
  0.500000000000000     
  0.500000000000000     
  0.500000000000000     
  0.500000000000000     
  0.500000000000000     
  0.500000000000000     
  0.500000000000000     
  0.500000000000000     
  0.500000000000000     
  0.500000000000000     
  0.500000000000000     
  0.500000000000000     
  0.500000000000000     
  0.500000000000000     
  0.500000000000000     
  0.500000000000000     
  0.500000000000000     
  0.500000000000000     
  0.500000000000000     
  0.500000000000000     
  0.500000000000000     
  0.500000000000000     
  0.500000000000000     
  0.500000000000000     
  0.500000000000000     
  0.500000000000000     
  0.500000000000000     
  0.500000000000000     
  0.500000000000000     
  0.500000000000000     
  0.500000000000000     
  0.500000000000000     
  0.500000000000000     
  0.500000000000000     
  0.500000000000000     
  0.500000000000000     
  0.500000000000000     
  0.500000000000000     
  0.500000000000000     
  0.500000000000000     
  0.500000000000000     
  0.500000000000000     
  0.500000000000000     
  0.500000000000000     
  0.500000000000000     
  0.500000000000000     
  0.500000000000000     
  0.500000000000000     
  0.500000000000000     
  0.500000000000000     
  0.500000000000000     
  0.500000000000000     
  0.500000000000000     
  0.500000000000000     
  0.500000000000000     
  0.500000000000000     
  0.500000000000000     
  0.500000000000000     
  0.500000000000000     
  0.500000000000000     
  0.500000000000000     
  0.500000000000000     
  0.500000000000000     
  0.500000000000000     
  0.500000000000000     
  0.500000000000000     
  0.500000000000000     
  0.500000000000000     
  0.500000000000000     
  0.500000000000000     
  0.500000000000000     
  0.500000000000000     
  0.500000000000000     
  0.500000000000000     
  0.500000000000000     
  0.500000000000000     
  0.500000000000000     
  0.500000000000000     
  0.500000000000000     
  0.500000000000000     
  0.500000000000000     
  0.500000000000000     
  0.500000000000000     
  0.500000000000000     
  0.500000000000000     
  0.500000000000000     
  0.500000000000000     
  0.500000000000000     
  0.500000000000000     
  0.500000000000000     
  0.500000000000000     
  0.500000000000000     
  0.500000000000000     
  0.500000000000000     
  0.500000000000000     
  0.500000000000000     
  0.500000000000000     
  0.500000000000000     
  0.500000000000000     
  0.500000000000000     
  0.500000000000000     
  0.500000000000000     
  0.500000000000000     
  0.500000000000000     
  0.500000000000000     
  0.500000000000000     
  0.500000000000000     
  0.500000000000000     
  0.500000000000000     
  0.500000000000000     
  0.500000000000000     
  0.500000000000000     
  0.500000000000000     
  0.500000000000000     
  0.500000000000000     
  0.500000000000000     
  0.500000000000000     
  0.500000000000000     
  0.500000000000000     
  0.500000000000000     
  0.500000000000000     
  0.500000000000000     
  0.500000000000000     
  0.500000000000000     
  0.500000000000000     
  0.500000000000000     
  0.500000000000000     
  0.500000000000000     
  0.500000000000000     
  0.500000000000000     
  0.500000000000000     
  0.500000000000000     
  0.500000000000000     
  0.500000000000000     
  0.500000000000000     
  0.500000000000000     
  0.500000000000000     
  0.500000000000000     
  0.500000000000000     
  0.500000000000000     
  0.500000000000000     
  0.500000000000000     
  0.500000000000000     
  0.500000000000000     
  0.500000000000000     
  0.500000000000000     
  0.500000000000000     
  0.500000000000000     
  0.500000000000000     
  0.500000000000000     
  0.500000000000000     
  0.500000000000000     
  0.500000000000000     
  0.500000000000000     
  0.500000000000000     
  0.500000000000000     
  0.500000000000000     
  0.500000000000000     
  0.500000000000000     
  0.500000000000000     
  0.500000000000000     
  0.500000000000000     
  0.500000000000000     
  0.500000000000000     
  0.500000000000000     
  0.500000000000000     
  0.500000000000000     
  0.500000000000000     
  0.500000000000000     
  0.500000000000000     
  0.500000000000000     
  0.500000000000000     
  0.500000000000000     
  0.500000000000000     
  0.500000000000000     
  0.500000000000000     
  0.500000000000000     
  0.500000000000000     
  0.500000000000000     
  0.500000000000000     
  0.500000000000000     
  0.500000000000000     
  0.500000000000000     
  0.500000000000000     
  0.500000000000000     
  0.500000000000000     
  0.500000000000000     
  0.500000000000000     
  0.500000000000000     
  0.500000000000000     
  0.500000000000000     
  0.500000000000000     
  0.500000000000000     
  0.500000000000000     
  0.500000000000000     
  0.500000000000000     
  0.500000000000000     
  0.500000000000000     
  0.500000000000000     
  0.500000000000000     
  0.500000000000000     
  0.500000000000000     
  0.500000000000000     
  0.500000000000000     
  0.500000000000000     
  0.500000000000000     
  0.500000000000000     
  0.500000000000000     
  0.500000000000000     
  0.500000000000000     
  0.500000000000000     
  0.500000000000000     
  0.500000000000000     
  0.500000000000000     
  0.500000000000000     
  0.500000000000000     
  0.500000000000000     
  0.500000000000000     
  0.500000000000000     
  0.500000000000000     
  0.500000000000000     
  0.500000000000000     
  0.500000000000000     
  0.500000000000000     
  0.500000000000000     
  0.500000000000000     
  0.500000000000000     
  0.500000000000000     
  0.500000000000000     
  0.500000000000000     
  0.500000000000000     
  0.500000000000000     
  0.500000000000000     
  0.500000000000000     
  0.500000000000000     
  0.500000000000000     
  0.500000000000000     
  0.500000000000000     
  0.500000000000000     
  0.500000000000000     
  0.500000000000000     
  0.500000000000000     
  0.500000000000000     
  0.500000000000000     
  0.500000000000000     
  0.500000000000000     
  0.500000000000000     
  0.500000000000000     
  0.500000000000000     
  0.500000000000000     
  0.500000000000000     
  0.500000000000000     
  0.500000000000000     
  0.500000000000000     
  0.500000000000000     
  0.500000000000000     
  0.500000000000000     
  0.500000000000000     
  0.500000000000000     
  0.500000000000000     
  0.500000000000000     
  0.500000000000000     
  0.500000000000000     
  0.500000000000000     
  0.500000000000000     
  0.500000000000000     
  0.500000000000000     
  0.500000000000000     
  0.500000000000000     
  0.500000000000000     
  0.500000000000000     
  0.500000000000000     
  0.500000000000000     
  0.500000000000000     
  0.500000000000000     
  0.500000000000000     
  0.500000000000000     
  0.500000000000000     
  0.500000000000000     
  0.500000000000000     
  0.500000000000000     
  0.500000000000000     
  0.500000000000000     
  0.500000000000000     
  0.500000000000000     
  0.500000000000000     
  0.500000000000000     
  0.500000000000000     
  0.500000000000000     
  0.500000000000000     
  0.500000000000000     
  0.500000000000000     
  0.500000000000000     
  0.500000000000000     
  0.500000000000000     
  0.500000000000000     
  0.500000000000000     
  0.500000000000000     
  0.500000000000000     
  0.500000000000000     
  0.500000000000000     
  0.500000000000000     
  0.500000000000000     
  0.500000000000000     
  0.500000000000000     
  0.500000000000000     
  0.500000000000000     
  0.500000000000000     
  0.500000000000000     
  0.500000000000000     
  0.500000000000000     
  0.500000000000000     
  0.500000000000000     
  0.500000000000000     
  0.500000000000000     
  0.500000000000000     
  0.500000000000000     
  0.500000000000000     