# vtk DataFile Version 5.1
Data.vtk
ASCII
DATASET UNSTRUCTURED_GRID
 
POINTS 2000 float
    1.92  -13.47    0.94
   11.29   -8.19    2.16
   -0.34  -14.50    5.74
    1.65  -13.20   -1.65
   -4.23  -11.17    7.78
    0.70  -13.64   -8.81
    3.84   -6.35   -9.22
   -1.04  -13.16   -8.58
    5.11  -10.79   -4.28
    8.04  -11.11    1.24
   -1.49  -13.22   -1.07
    0.82  -14.48   -8.28
    4.60  -12.34    0.62
    0.60  -13.69    2.97
    3.92  -12.17   -0.62
    7.73   -9.86    3.22
    6.28   -8.50    6.61
    2.27  -13.60    7.55
   12.61   -7.16    8.47
    2.01  -13.55   -3.92
    1.92  -14.37   -1.48
   10.96   -9.50    7.34
   -1.35  -11.37   -8.67
    8.67  -11.62   -7.35
    7.23  -11.64    1.91
   -4.44  -11.74   -0.82
    3.32  -14.11    9.50
    1.25  -12.43    7.54
   -6.59  -10.50    4.94
   -5.86  -13.27    4.17
    2.17  -14.34   -3.32
    5.17  -10.15   -0.66
    1.30  -10.31    6.62
    4.12  -13.12   -3.15
   -4.32  -13.77   -3.94
    5.87  -12.57    8.03
    0.33  -12.82    7.50
   -0.86  -12.84    6.00
    0.38  -11.41    3.33
    1.40  -13.67    3.61
    9.75   -7.00    7.31
   -2.93  -14.19   -0.13
   -6.86  -10.11   -8.06
    2.04  -14.36    2.21
   -9.49  -10.94   -7.46
   -1.82   -9.97    9.09
    6.45  -10.13    5.76
    3.60  -12.15   -5.59
   10.46   -5.66    8.55
    3.54  -11.97   -9.50
    6.21  -12.17   -8.33
   -8.06  -11.12    9.35
    2.12  -11.02    7.21
    8.14  -10.98    3.22
    0.18  -11.26    5.73
    7.09  -10.25    0.09
    0.31  -11.33   -4.33
   -2.76  -12.61    3.59
   -6.31  -12.83   -0.96
   -5.57  -11.36   -4.14
   -3.97  -12.69   -0.85
   -6.48  -10.74    3.55
    3.71  -10.73    7.34
    9.38  -11.05    4.56
    8.67  -11.62    2.66
    5.70  -11.97    0.76
    0.12  -14.50    0.11
    8.01  -11.02    4.52
    4.54  -13.34    0.63
    4.07  -12.83   -6.16
  -12.49   -6.22    9.36
    7.21  -12.58   -7.48
    1.04  -13.69   -3.68
    5.62   -9.29    6.74
    9.00   -8.81    6.12
   -1.58  -14.41   -6.11
    7.27   -7.56    7.54
   -1.32   -9.69   -9.45
    6.93  -10.85    4.02
    7.82   -8.13    1.76
    7.83   -6.51    9.13
    7.39   -9.54    7.33
    5.40  -12.60    0.04
    2.04  -10.70   -8.45
    7.01  -12.69   -8.64
    5.36  -11.78   -7.27
   -3.89  -13.97    0.07
    4.98   -9.78   -2.16
   -0.31  -11.95    1.93
    9.81   -6.17    9.11
    0.99  -14.47    0.59
    3.26  -11.61   -7.64
   -5.10  -12.33   -2.52
   -3.83  -13.14    6.10
    9.41  -11.03    5.81
    1.75   -9.81    4.08
    2.69  -11.79    4.21
   -2.19  -12.61    5.01
    9.62  -10.85   -0.36
   -9.12  -11.18   -3.47
   -2.60  -14.26    4.25
   10.65   -9.14   -5.47
    1.84  -10.28    5.78
    5.80   -8.15    7.86
   -2.99  -11.81    4.14
    1.54  -10.89   -7.10
   -3.70  -13.23    8.55
    3.39  -12.36   -3.09
   -1.42  -14.42    6.98
    5.73  -11.35    4.04
   -7.13  -11.70    7.38
    5.93  -10.72   -1.49
   11.23   -8.38   -5.05
    3.67  -10.44   -6.42
   10.01  -10.27    4.37
    6.82   -9.78   -6.83
   -3.60  -14.05   -2.06
   -2.59  -12.48   -3.38
   10.28  -10.20    7.11
   -3.27  -14.13    9.50
    8.99   -6.86    8.25
   -6.09  -13.16    7.67
    7.10  -10.46    7.08
    4.43  -10.22    4.41
   -6.46  -12.60    1.58
   -2.06  -11.09   -4.43
    8.02   -9.18   -7.95
    1.73  -14.40    1.26
   10.82   -8.52   -9.30
    7.88   -8.18   -8.97
    2.98  -13.54   -4.15
    6.07  -10.91    3.09
    1.35  -11.67    2.42
    6.44   -8.33    3.63
   -7.20  -12.59   -9.50
   -3.56  -12.26    8.39
    3.34  -14.11   -6.65
    4.76  -13.70   -5.40
   -1.80  -11.69    9.45
    7.29  -12.53    6.07
    5.51  -12.37   -3.88
    1.39  -14.43    2.96
    2.58  -12.87   -2.52
   -4.58  -12.96    6.74
   -1.80  -12.87    6.33
    1.63  -13.77    8.42
    1.10  -13.39    6.34
   -1.62  -11.93   -4.08
    3.77  -13.28   -7.89
    2.07  -12.59   -8.82
    8.78  -10.59    6.52
   -5.06  -12.55    1.75
    1.24  -11.66    4.97
    6.13   -9.95   -0.85
   -0.46  -12.82   -5.04
   -3.90  -13.96    3.03
   -2.10  -13.60    4.81
   -3.95  -10.09    7.66
   -4.68  -13.72    8.62
   10.36   -7.02    5.23
    2.94  -11.98   -4.86
    2.50   -7.17    9.45
    6.48  -11.23   -8.62
    9.99   -9.86    1.54
   -1.28  -10.69   -9.40
    9.10   -8.85    3.17
    0.83  -13.86   -0.19
    8.27  -10.77   -8.78
    6.12  -10.31    0.43
   -3.62  -11.95   -6.63
   10.18  -10.32   -0.99
   -7.32  -11.73   -8.68
    3.99  -10.19    9.50
   -4.42  -11.91   -6.01
   -0.52  -11.51    4.69
    7.77  -10.21    0.85
    1.40  -11.97    9.08
   -8.41  -10.84    8.40
    4.44  -10.76   -0.97
    3.63  -12.22    2.77
    3.00  -14.19   -5.71
    7.22   -9.80    2.35
   10.20   -8.89    1.39
    2.54  -12.03   -9.50
    6.67  -10.86    9.50
   10.38  -10.10   -5.39
   -1.29  -12.83    0.77
    1.80  -14.39   -6.89
   -3.86  -13.98    7.79
   -0.85  -14.47   -1.80
    5.25  -12.39   -1.72
   -0.92  -13.98    8.12
   11.10   -8.19    9.49
    3.35  -13.85   -9.50
    1.94  -12.06   -5.03
    6.54  -11.11    7.60
   -3.69  -12.73   -7.70
    2.73  -13.46   -7.27
   -1.16  -13.52   -0.08
   11.27   -8.50   -4.04
    5.62  -10.13    7.30
    3.89   -9.22    8.13
    9.28  -11.02   -3.76
    5.70  -11.69   -0.58
   -2.06  -14.35    2.53
   -4.59  -12.94   -3.13
   10.70   -7.28   -6.15
    2.17  -12.43    8.64
    8.41   -9.55   -5.72
    6.57  -10.59   -9.41
   -4.05  -10.59    8.59
   -0.97  -12.58   -9.50
    8.49   -8.17    6.72
   -0.61  -13.50   -1.91
   -6.39  -10.78   -6.91
   10.74   -7.44    4.40
    8.21   -8.08    3.22
   -0.64  -12.62    4.88
   -7.92  -12.14   -6.34
   -4.21  -13.79   -1.31
    0.46  -10.59    7.11
   10.22   -9.30    7.99
   -5.48  -12.91   -7.43
    1.90  -11.38    0.35
    9.93   -9.75    8.86
   -3.12  -10.49    9.47
   -8.22  -11.94   -5.14
   10.39  -10.11   -3.29
   -4.25  -12.12    9.41
    0.24   -9.82   -9.50
   -1.47  -14.43   -5.07
    4.91  -11.35    5.75
    2.51  -13.54   -6.30
   -0.52  -10.78    7.08
   -0.30  -13.75   -7.22
   -4.65  -13.71   -2.21
   -7.50  -11.52    4.32
    8.54   -8.84    1.71
    2.70  -13.60    4.86
   -1.72  -13.07   -7.52
    5.53  -11.10    4.99
   -6.25  -10.50    7.85
    0.96  -12.86   -9.45
    8.44   -8.92   -9.45
    6.26  -10.21    4.41
   -1.86  -13.33    2.29
    2.51   -9.76   -8.67
   10.03   -9.07   -1.17
   -8.01  -12.08    9.09
    3.01  -11.45    8.91
    3.56  -11.29    2.23
   -1.42  -14.43   -9.50
   -1.32  -12.27   -8.23
    4.95  -13.63    7.23
   13.89   -4.16    7.85
    5.78  -11.82    5.86
   -1.78  -13.19   -9.25
    7.28  -12.54    4.55
    2.59  -12.30   -5.77
    4.24  -12.68   -1.67
   12.09   -7.54   -8.39
   -5.31  -11.95   -7.96
   -8.72  -11.55    4.84
   -4.26  -12.24    6.07
   -4.43  -13.59   -5.82
    6.28  -13.07   -6.12
    8.72  -11.58    5.10
   -6.88  -11.83    3.60
    3.07  -12.51   -8.80
   -3.54  -12.07   -8.58
    4.87  -12.58   -0.81
    1.94  -11.88    3.41
   10.54   -9.96   -7.91
   10.46   -7.11   -9.44
   -2.79  -10.42   -7.08
    4.35  -11.94    8.12
    8.37  -10.30    3.92
    6.99   -7.37    9.24
    5.97  -11.07   -6.92
   -3.77  -12.97    0.17
   -2.85  -13.02    6.29
   11.00   -9.45    8.88
    5.50  -12.33   -6.15
   -1.29  -10.83    9.50
   -5.45  -13.01    2.70
    5.64   -8.79    2.72
    4.27  -11.41    1.54
    9.23   -9.23    8.16
    6.44  -11.13   -4.66
    7.76   -8.62    7.46
   -0.70  -13.61    5.38
   -9.44  -10.96    8.38
    1.95  -12.28   -1.33
    6.88  -10.83   -5.51
    8.64   -8.42    7.90
    3.22  -13.60   -0.48
    5.47  -13.43   -7.80
    8.24   -9.32    8.12
    4.23  -13.87    6.58
    3.25  -14.13   -7.80
    3.13  -12.56    1.95
    7.37  -12.49    7.67
    7.33   -9.94    4.14
    7.35   -8.47    2.80
   12.19   -6.85    4.65
    3.95  -11.17    8.69
    8.02   -9.43    5.76
    7.20  -12.53   -6.48
    2.81  -12.73   -1.56
   -7.15  -11.52    9.19
    4.29  -11.62   -7.61
    9.01   -9.91    5.53
    8.48   -9.49    0.58
   -9.64  -10.84    3.94
    0.64  -11.68   -7.96
    7.75   -9.48   -4.46
    3.86  -11.05   -9.21
   10.15   -9.00   -4.09
   -6.65  -12.78    3.80
   -4.14  -11.30   -8.37
    1.53  -12.10   -8.12
    4.97  -10.25   -5.19
    3.72  -12.95    1.07
    3.44  -12.82   -4.67
   -4.95  -11.16   -6.40
   12.94   -6.54   -6.38
    4.85  -11.83    3.95
    9.28   -7.92    7.31
   -0.97  -13.10   -6.85
   -2.91  -13.31    4.28
    3.96  -10.39   -2.09
    0.42  -13.62    0.73
   -1.96  -14.37   -0.25
    4.99  -11.46   -1.44
    8.95   -9.99    8.80
   -2.06  -13.47    0.42
   -7.46  -10.49    8.06
   -0.92  -14.47    4.06
   -2.74  -12.82    0.06
    9.02  -10.48    0.36
    4.64  -11.65   -3.99
   10.73   -7.43   -7.89
   10.73   -8.80    6.18
    0.15  -12.23    5.36
    5.50   -9.98   -8.14
    1.31  -11.92   -7.11
   -1.24  -10.33    8.09
   -0.53  -11.05    3.15
    4.27  -12.89   -4.11
    0.73  -14.48    7.52
   -4.03  -13.93   -4.98
    1.54  -12.04   -9.49
   -3.30  -13.39   -0.61
   -5.40  -12.44    4.52
    1.94  -11.72   -6.31
    5.29  -10.13    5.01
    8.59   -8.78   -3.69
    8.45  -10.84    9.11
   -6.33  -11.24    6.28
   -7.42  -12.46   -7.15
    1.97  -10.22    9.50
    7.00  -11.80    9.48
    7.52  -10.80   -4.74
    4.29  -13.85    9.50
   12.79   -6.44    9.50
   -2.62  -11.01    4.87
   -5.71  -13.33    9.40
    7.94  -11.07   -7.77
   -1.24  -11.60   -4.95
   -2.33  -10.86    8.15
    5.46  -12.76   -7.05
   -6.73  -11.70   -9.49
    7.68  -11.33   -3.78
    3.55  -13.14    9.44
   -3.16  -12.20   -1.42
   -3.64  -14.03    4.40
    9.54   -8.72    5.12
    2.83  -11.01   -4.15
    5.04  -11.91   -4.90
   -1.28  -13.87   -7.92
    9.07   -9.81   -9.43
    3.22  -11.44   -0.09
    7.68  -10.25   -2.16
    9.99   -8.79    6.90
   -1.94  -12.44   -2.62
   -3.96  -11.50   -9.34
    6.53  -11.09   -0.46
    8.20  -11.93    0.40
    3.64  -11.57   -3.65
   -0.77  -10.41   -8.50
    8.63  -11.65    8.54
   10.31  -10.20    5.92
    7.47   -8.58   -4.87
   13.11   -6.20    6.76
    0.27  -11.59    7.05
    9.96   -9.27    4.40
[...]
POINT_DATA 2000
SCALARS radius float
LOOKUP_TABLE default
  0.500000000000000     
  0.500000000000000     
  0.500000000000000     
  0.500000000000000     
  0.500000000000000     
  0.500000000000000     
  0.500000000000000     
  0.500000000000000     
  0.500000000000000     
  0.500000000000000     
  0.500000000000000     
  0.500000000000000     
  0.500000000000000     
  0.500000000000000     
  0.500000000000000     
  0.500000000000000     
  0.500000000000000     
  0.500000000000000     
  0.500000000000000     
  0.500000000000000     
  0.500000000000000     
  0.500000000000000     
  0.500000000000000     
  0.500000000000000     
  0.500000000000000     
  0.500000000000000     
  0.500000000000000     
  0.500000000000000     
  0.500000000000000     
  0.500000000000000     
  0.500000000000000     
  0.500000000000000     
  0.500000000000000     
  0.500000000000000     
  0.500000000000000     
  0.500000000000000     
  0.500000000000000     
  0.500000000000000     
  0.500000000000000     
  0.500000000000000     
  0.500000000000000     
  0.500000000000000     
  0.500000000000000     
  0.500000000000000     
  0.500000000000000     
  0.500000000000000     
  0.500000000000000     
  0.500000000000000     
  0.500000000000000     
  0.500000000000000     
  0.500000000000000     
  0.500000000000000     
  0.500000000000000     
  0.500000000000000     
  0.500000000000000     
  0.500000000000000     
  0.500000000000000     
  0.500000000000000     
  0.500000000000000     
  0.500000000000000     
  0.500000000000000     
  0.500000000000000     
  0.500000000000000     
  0.500000000000000     
  0.500000000000000     
  0.500000000000000     
  0.500000000000000     
  0.500000000000000     
  0.500000000000000     
  0.500000000000000     
  0.500000000000000     
  0.500000000000000     
  0.500000000000000     
  0.500000000000000     
  0.500000000000000     
  0.500000000000000     
  0.500000000000000     
  0.500000000000000     
  0.500000000000000     
  0.500000000000000     
  0.500000000000000     
  0.500000000000000     
  0.500000000000000     
  0.500000000000000     
  0.500000000000000     
  0.500000000000000     
  0.500000000000000     
  0.500000000000000     
  0.500000000000000     
  0.500000000000000     
  0.500000000000000     
  0.500000000000000     
  0.500000000000000     
  0.500000000000000     
  0.500000000000000     
  0.500000000000000     
  0.500000000000000     
  0.500000000000000     
  0.500000000000000     
  0.500000000000000     
  0.500000000000000     
  0.500000000000000     
  0.500000000000000     
  0.500000000000000     
  0.500000000000000     
  0.500000000000000     
  0.500000000000000     
  0.500000000000000     
  0.500000000000000     
  0.500000000000000     
  0.500000000000000     
  0.500000000000000     
  0.500000000000000     
  0.500000000000000     
  0.500000000000000     
  0.500000000000000     
  0.500000000000000     
  0.500000000000000     
  0.500000000000000     
  0.500000000000000     
  0.500000000000000     
  0.500000000000000     
  0.500000000000000     
  0.500000000000000     
  0.500000000000000     
  0.500000000000000     
  0.500000000000000     
  0.500000000000000     
  0.500000000000000     
  0.500000000000000     
  0.500000000000000     
  0.500000000000000     
  0.500000000000000     
  0.500000000000000     
  0.500000000000000     
  0.500000000000000     
  0.500000000000000     
  0.500000000000000     
  0.500000000000000     
  0.500000000000000     
  0.500000000000000     
  0.500000000000000     
  0.500000000000000     
  0.500000000000000     
  0.500000000000000     
  0.500000000000000     
  0.500000000000000     
  0.500000000000000     
  0.500000000000000     
  0.500000000000000     
  0.500000000000000     
  0.500000000000000     
  0.500000000000000     
  0.500000000000000     
  0.500000000000000     
  0.500000000000000     
  0.500000000000000     
  0.500000000000000     
  0.500000000000000     
  0.500000000000000     
  0.500000000000000     
  0.500000000000000     
  0.500000000000000     
  0.500000000000000     
  0.500000000000000     
  0.500000000000000     
  0.500000000000000     
  0.500000000000000     
  0.500000000000000     
  0.500000000000000     
  0.500000000000000     
  0.500000000000000     
  0.500000000000000     
  0.500000000000000     
  0.500000000000000     
  0.500000000000000     
  0.500000000000000     
  0.500000000000000     
  0.500000000000000     
  0.500000000000000     
  0.500000000000000     
  0.500000000000000     
  0.500000000000000     
  0.500000000000000     
  0.500000000000000     
  0.500000000000000     
  0.500000000000000     
  0.500000000000000     
  0.500000000000000     
  0.500000000000000     
  0.500000000000000     
  0.500000000000000     
  0.500000000000000     
  0.500000000000000     
  0.500000000000000     
  0.500000000000000     
  0.500000000000000     
  0.500000000000000     
  0.500000000000000     
  0.500000000000000     
  0.500000000000000     
  0.500000000000000     
  0.500000000000000     
  0.500000000000000     
  0.500000000000000     
  0.500000000000000     
  0.500000000000000     
  0.500000000000000     
  0.500000000000000     
  0.500000000000000     
  0.500000000000000     
  0.500000000000000     
  0.500000000000000     
  0.500000000000000     
  0.500000000000000     
  0.500000000000000     
  0.500000000000000     
  0.500000000000000     
  0.500000000000000     
  0.500000000000000     
  0.500000000000000     
  0.500000000000000     
  0.500000000000000     
  0.500000000000000     
  0.500000000000000     
  0.500000000000000     
  0.500000000000000     
  0.500000000000000     
  0.500000000000000     
  0.500000000000000     
  0.500000000000000     
  0.500000000000000     
  0.500000000000000     
  0.500000000000000     
  0.500000000000000     
  0.500000000000000     
  0.500000000000000     
  0.500000000000000     
  0.500000000000000     
  0.500000000000000     
  0.500000000000000     
  0.500000000000000     
  0.500000000000000     
  0.500000000000000     
  0.500000000000000     
  0.500000000000000     
  0.500000000000000     
  0.500000000000000     
  0.500000000000000     
  0.500000000000000     
  0.500000000000000     
  0.500000000000000     
  0.500000000000000     
  0.500000000000000     
  0.500000000000000     
  0.500000000000000     
  0.500000000000000     
  0.500000000000000     
  0.500000000000000     
  0.500000000000000     
  0.500000000000000     
  0.500000000000000     
  0.500000000000000     
  0.500000000000000     
  0.500000000000000     
  0.500000000000000     
  0.500000000000000     
  0.500000000000000     
  0.500000000000000     
  0.500000000000000     
  0.500000000000000     
  0.500000000000000     
  0.500000000000000     
  0.500000000000000     
  0.500000000000000     
  0.500000000000000     
  0.500000000000000     
  0.500000000000000     
  0.500000000000000     
  0.500000000000000     
  0.500000000000000     
  0.500000000000000     
  0.500000000000000     
  0.500000000000000     
  0.500000000000000     
  0.500000000000000     
  0.500000000000000     
  0.500000000000000     
  0.500000000000000     
  0.500000000000000     
  0.500000000000000     
  0.500000000000000     
  0.500000000000000     
  0.500000000000000     
  0.500000000000000     
  0.500000000000000     
  0.500000000000000     
  0.500000000000000     
  0.500000000000000     
  0.500000000000000     
  0.500000000000000     
  0.500000000000000     
  0.500000000000000     
  0.500000000000000     
  0.500000000000000     
  0.500000000000000     
  0.500000000000000     
  0.500000000000000     
  0.500000000000000     
  0.500000000000000     
  0.500000000000000     
  0.500000000000000     
  0.500000000000000     
  0.500000000000000     
  0.500000000000000     
  0.500000000000000     
  0.500000000000000     
  0.500000000000000     
  0.500000000000000     
  0.500000000000000     
  0.500000000000000     
  0.500000000000000     
  0.500000000000000     
  0.500000000000000     
  0.500000000000000     
  0.500000000000000     
  0.500000000000000     
  0.500000000000000     
  0.500000000000000     
  0.500000000000000     
  0.500000000000000     
  0.500000000000000     
  0.500000000000000     
  0.500000000000000     
  0.500000000000000     
  0.500000000000000     
  0.500000000000000     
  0.500000000000000     
  0.500000000000000     
  0.500000000000000     
  0.500000000000000     
  0.500000000000000     
  0.500000000000000     
  0.500000000000000     
  0.500000000000000     
  0.500000000000000     
  0.500000000000000     
  0.500000000000000     
  0.500000000000000     
  0.500000000000000     
  0.500000000000000     
  0.500000000000000     
  0.500000000000000     
  0.500000000000000     
  0.500000000000000     
  0.500000000000000     
  0.500000000000000     
  0.500000000000000     
  0.500000000000000     
  0.500000000000000     
  0.500000000000000     
  0.500000000000000     
  0.500000000000000     
  0.500000000000000     
  0.500000000000000     
  0.500000000000000     
  0.500000000000000     
  0.500000000000000     
  0.500000000000000     
  0.500000000000000     
  0.500000000000000     
  0.500000000000000     
  0.500000000000000     
  0.500000000000000     
  0.500000000000000     
  0.500000000000000     
  0.500000000000000     
  0.500000000000000     
  0.500000000000000     
  0.500000000000000     
  0.500000000000000     
  0.500000000000000     
  0.500000000000000     
  0.500000000000000     
  0.500000000000000     
  0.500000000000000     
  0.500000000000000     
  0.500000000000000     
  0.500000000000000     
  0.500000000000000     
  0.500000000000000     
  0.500000000000000     
  0.500000000000000     
  0.500000000000000     
  0.500000000000000     
  0.500000000000000     
  0.500000000000000     
  0.500000000000000     
  0.500000000000000     
  0.500000000000000     
  0.500000000000000     
  0.500000000000000     
  0.500000000000000     
  0.500000000000000     
  0.500000000000000     
  0.500000000000000     
  0.500000000000000     
  0.500000000000000     
  0.500000000000000     
  0.500000000000000     
  0.500000000000000     
  0.500000000000000     
  0.500000000000000     
  0.500000000000000     
  0.500000000000000     
  0.500000000000000     
  0.500000000000000     
  0.500000000000000     
  0.500000000000000     
  0.500000000000000     
  0.500000000000000     
  0.500000000000000     
  0.500000000000000     
  0.500000000000000     
  0.500000000000000     
  0.500000000000000     
  0.500000000000000     
  0.500000000000000     
  0.500000000000000     
  0.500000000000000     
  0.500000000000000     
  0.500000000000000     
  0.500000000000000     
  0.500000000000000     
  0.500000000000000     
  0.500000000000000     
  0.500000000000000     
  0.500000000000000     
  0.500000000000000     
  0.500000000000000     
  0.500000000000000     
  0.500000000000000     
  0.500000000000000     
  0.500000000000000     
  0.500000000000000     
  0.500000000000000     
  0.500000000000000     
  0.500000000000000     
  0.500000000000000     
  0.500000000000000     
  0.500000000000000     
  0.500000000000000     
  0.500000000000000     
  0.500000000000000     
  0.500000000000000     
  0.500000000000000     
  0.500000000000000     
  0.500000000000000     
  0.500000000000000     
  0.500000000000000     
  0.500000000000000     
  0.500000000000000     
  0.500000000000000     
  0.500000000000000     
  0.500000000000000     
  0.500000000000000     
  0.500000000000000     
  0.500000000000000     
  0.500000000000000     
  0.500000000000000     
  0.500000000000000     
  0.500000000000000     
  0.500000000000000     
  0.500000000000000     
  0.500000000000000     
  0.500000000000000     
  0.500000000000000     
  0.500000000000000     
  0.500000000000000     
  0.500000000000000     
  0.500000000000000     
  0.500000000000000     
  0.500000000000000     
  0.500000000000000     
  0.500000000000000     
  0.500000000000000     
  0.500000000000000     
  0.500000000000000     
  0.500000000000000     
  0.500000000000000     
  0.500000000000000     
  0.500000000000000     
  0.500000000000000     
  0.500000000000000     
  0.500000000000000     
  0.500000000000000     
  0.500000000000000     
  0.500000000000000     
  0.500000000000000     
  0.500000000000000     
  0.500000000000000     
  0.500000000000000     
  0.500000000000000     
  0.500000000000000     
  0.500000000000000     
  0.500000000000000     
  0.500000000000000     
  0.500000000000000     
  0.500000000000000     
  0.500000000000000     
  0.500000000000000     
  0.500000000000000     
  0.500000000000000     
  0.500000000000000     
  0.500000000000000     
  0.500000000000000     
  0.500000000000000     
  0.500000000000000     
  0.500000000000000     
  0.500000000000000     
  0.500000000000000     
  0.500000000000000     
  0.500000000000000     
  0.500000000000000     
  0.500000000000000     
  0.500000000000000     
  0.500000000000000     
  0.500000000000000     
  0.500000000000000     
  0.500000000000000     
  0.500000000000000     
  0.500000000000000     
  0.500000000000000     
  0.500000000000000     
  0.500000000000000     
  0.500000000000000     
  0.500000000000000     
  0.500000000000000     
  0.500000000000000     
  0.500000000000000     
  0.500000000000000     
  0.500000000000000     
  0.500000000000000     
  0.500000000000000     
  0.500000000000000     
  0.500000000000000     
  0.500000000000000     
  0.500000000000000     
  0.500000000000000     
  0.500000000000000     
  0.500000000000000     
  0.500000000000000     
  0.500000000000000     
  0.500000000000000     
  0.500000000000000     
  0.500000000000000     
  0.500000000000000     
  0.500000000000000     
  0.500000000000000     
  0.500000000000000     
  0.500000000000000     
  0.500000000000000     
  0.500000000000000     
  0.500000000000000     
  0.500000000000000     
  0.500000000000000     
  0.500000000000000     
  0.500000000000000     
  0.500000000000000     
  0.500000000000000     
  0.500000000000000     
  0.500000000000000     
  0.500000000000000     
  0.500000000000000     
  0.500000000000000     
  0.500000000000000     
  0.500000000000000     
  0.500000000000000     
  0.500000000000000     
  0.500000000000000     
  0.500000000000000     
  0.500000000000000     
  0.500000000000000     
  0.500000000000000     
  0.500000000000000     
  0.500000000000000     
  0.500000000000000     
  0.500000000000000     
  0.500000000000000     
  0.500000000000000     
  0.500000000000000     
  0.500000000000000     
  0.500000000000000     
  0.500000000000000     
  0.500000000000000     
  0.500000000000000     
  0.500000000000000     
  0.500000000000000     
  0.500000000000000     
  0.500000000000000     
  0.500000000000000     
  0.500000000000000     
  0.500000000000000     
  0.500000000000000     
  0.500000000000000     
  0.500000000000000     
  0.500000000000000     
  0.500000000000000     
  0.500000000000000     
  0.500000000000000     
  0.500000000000000     
  0.500000000000000     
  0.500000000000000     
  0.500000000000000     
  0.500000000000000     
  0.500000000000000     
  0.500000000000000     
  0.500000000000000     
  0.500000000000000     
  0.500000000000000     
  0.500000000000000     
  0.500000000000000     
  0.500000000000000     
  0.500000000000000     
  0.500000000000000     
  0.500000000000000     
  0.500000000000000     
  0.500000000000000     
  0.500000000000000     
  0.500000000000000     
  0.500000000000000     
  0.500000000000000     
  0.500000000000000     
  0.500000000000000     
  0.500000000000000     
  0.500000000000000     
  0.500000000000000     
  0.500000000000000     
  0.500000000000000     
  0.500000000000000     
  0.500000000000000     
  0.500000000000000     
  0.500000000000000     
  0.500000000000000     
  0.500000000000000     
  0.500000000000000     
  0.500000000000000     
  0.500000000000000     
  0.500000000000000     
  0.500000000000000     
  0.500000000000000     
  0.500000000000000     
  0.500000000000000     
  0.500000000000000     
  0.500000000000000     
  0.500000000000000     
  0.500000000000000     
  0.500000000000000     
  0.500000000000000     
  0.500000000000000     
  0.500000000000000     
  0.500000000000000     
  0.500000000000000     
  0.500000000000000     
  0.500000000000000     
  0.500000000000000     
  0.500000000000000     
  0.500000000000000     
  0.500000000000000     
  0.500000000000000     
  0.500000000000000     
  0.500000000000000     
  0.500000000000000     
  0.500000000000000     
  0.500000000000000     
  0.500000000000000     
  0.500000000000000     
  0.500000000000000     
  0.500000000000000     
  0.500000000000000     
  0.500000000000000     
  0.500000000000000     
  0.500000000000000     
  0.500000000000000     
  0.500000000000000     
  0.500000000000000     
  0.500000000000000     
  0.500000000000000     
  0.500000000000000     
  0.500000000000000     
  0.500000000000000     
  0.500000000000000     
  0.500000000000000     
  0.500000000000000     
  0.500000000000000     
  0.500000000000000     
  0.500000000000000     
  0.500000000000000     
  0.500000000000000     
  0.500000000000000     
  0.500000000000000     
  0.500000000000000     
  0.500000000000000     
  0.500000000000000     
  0.500000000000000     
  0.500000000000000     
  0.500000000000000     
  0.500000000000000     
  0.500000000000000     
  0.500000000000000     
  0.500000000000000     
  0.500000000000000     
  0.500000000000000     
  0.500000000000000     
  0.500000000000000     
  0.500000000000000     
  0.500000000000000     
  0.500000000000000     
  0.500000000000000     
  0.500000000000000     
  0.500000000000000     
  0.500000000000000     
  0.500000000000000     
  0.500000000000000     
  0.500000000000000     
  0.500000000000000     
  0.500000000000000     
  0.500000000000000     
  0.500000000000000     
  0.500000000000000     
  0.500000000000000     
  0.500000000000000     
  0.500000000000000     
  0.500000000000000     
  0.500000000000000     
  0.500000000000000     
  0.500000000000000     
  0.500000000000000     
  0.500000000000000     
  0.500000000000000     
  0.500000000000000     
  0.500000000000000     
  0.500000000000000     
  0.500000000000000     
  0.500000000000000     
  0.500000000000000     
  0.500000000000000     
  0.500000000000000     
  0.500000000000000     
  0.500000000000000     
  0.500000000000000     
  0.500000000000000     
  0.500000000000000     
  0.500000000000000     
  0.500000000000000     
  0.500000000000000     
  0.500000000000000     
  0.500000000000000     
  0.500000000000000     
  0.500000000000000     
  0.500000000000000     
  0.500000000000000     
  0.500000000000000     
  0.500000000000000     
  0.500000000000000     
  0.500000000000000     
  0.500000000000000     
  0.500000000000000     
  0.500000000000000     
  0.500000000000000     
  0.500000000000000     
  0.500000000000000     
  0.500000000000000     
  0.500000000000000     
  0.500000000000000     
  0.500000000000000     
  0.500000000000000     
  0.500000000000000     
  0.500000000000000     
  0.500000000000000     
  0.500000000000000     
  0.500000000000000     
  0.500000000000000     
  0.500000000000000     
  0.500000000000000     
  0.500000000000000     
  0.500000000000000     
  0.500000000000000     
  0.500000000000000     
  0.500000000000000     
  0.500000000000000     
  0.500000000000000     
  0.500000000000000     
  0.500000000000000     
  0.500000000000000     
  0.500000000000000     
  0.500000000000000     