# vtk DataFile Version 5.1
Data.vtk
ASCII
DATASET UNSTRUCTURED_GRID
 
POINTS 2000 float
   -7.04  -10.16   -0.46
   -3.92  -13.94    2.04
   -2.88  -10.35    1.88
   -4.46  -12.19   -1.09
    0.45  -13.47    7.63
   -1.24  -11.03   -8.56
  -10.71   -9.75   -8.60
    0.56  -11.28   -6.59
   -6.40  -13.01   -5.37
   -4.06  -13.09   -0.73
    4.25  -13.11   -4.35
    1.36  -11.35   -8.40
   -5.42  -11.16   -0.75
   -6.75  -10.69    0.87
    3.78  -12.95   -1.89
   -6.82  -12.80    1.14
   -5.42  -12.52    6.00
   -4.24  -10.36    3.66
  -11.90   -6.55    7.37
   -3.05  -10.65   -3.22
    0.96  -11.00   -0.40
   -8.25   -8.65    4.59
   -1.42  -12.72   -9.50
   -6.36   -9.42   -4.35
   -4.19  -12.19    0.04
   -2.35  -14.31   -8.56
   -0.89  -10.56    4.54
   -1.84  -11.65    7.42
    0.17  -14.50   -0.74
    5.77  -13.30    6.22
   -1.83  -10.91   -2.19
   -2.40  -14.27   -1.77
   -4.59  -13.73    8.51
   -7.63  -11.20   -2.63
   -0.06  -11.02   -3.65
   -5.87  -10.24    5.71
    3.80  -13.11    8.92
    1.08  -12.75    6.41
    3.57  -13.35    1.57
   -5.54  -11.45    1.84
   -8.89  -11.46    2.19
    2.61  -11.37   -1.15
    4.63  -13.29   -8.33
   -4.00  -10.70    1.66
    1.82  -13.26   -7.82
  -11.09   -9.34    9.50
   -9.47  -10.98    3.96
   -3.42  -11.87   -4.19
  -11.08   -9.35    5.64
   -6.61   -8.74   -7.92
   -7.97   -9.95   -5.97
   -2.30  -10.74    9.40
    1.05  -12.68    8.05
   -5.41  -12.32    2.33
   -0.28  -14.24    5.49
   -5.11  -13.54    0.51
   -4.52  -13.77   -7.57
    5.60  -13.38    1.59
    5.10  -11.60   -0.50
   -2.45  -13.46   -9.40
    4.25  -13.21   -3.04
    5.32  -13.49   -9.03
   -2.76  -12.47    6.92
   -8.51   -8.53    2.69
  -12.08   -6.64    1.61
   -2.85  -13.31    0.25
    2.21  -12.47   -1.30
   -6.18  -12.12    4.16
   -3.26  -11.11   -0.91
   -9.15   -9.66   -3.82
    1.18  -14.45    8.34
   -7.58   -8.71   -4.97
   -6.43  -10.56   -3.15
   -0.15  -14.50    6.69
   -8.17  -11.96    4.93
    3.88  -11.91   -4.14
   -5.95  -13.22    7.76
  -12.21   -7.72   -8.36
   -3.39  -12.99    1.95
   -6.72  -12.83   -3.15
  -12.22   -7.68    9.49
   -6.28  -13.07    6.23
   -2.64  -12.14   -1.35
  -10.40  -10.06   -9.50
   -2.67   -9.94   -5.59
   -5.31  -12.09   -5.58
    3.53  -11.85    0.47
   -7.16  -12.43   -7.07
    3.05  -14.18   -0.21
   -8.53  -10.59    7.11
   -8.86   -9.14    0.44
   -7.16   -9.59   -8.60
    3.10  -14.12   -4.16
    5.29  -13.50    8.29
   -9.11   -9.98    2.97
   -0.61  -14.49   -3.79
    2.54  -12.62    2.73
    0.63  -13.92    5.72
  -12.26   -7.51   -0.60
    2.86  -14.22   -2.43
   -2.99  -11.33    2.00
   -5.73  -13.31   -4.69
   -0.00  -14.50    0.90
   -5.03  -13.60    7.32
    6.60  -12.91    1.96
   -6.36  -13.03   -8.34
   -6.78  -10.28    4.39
    2.24  -14.33   -4.71
    0.02  -10.88    3.67
   -0.12  -12.91    3.01
    4.77  -13.69    5.93
   -0.50  -13.78   -2.12
  -11.19   -9.20   -3.89
   -6.56  -11.60   -7.39
   -8.44   -9.29    3.33
  -10.40   -7.79   -9.41
    6.05  -12.46    0.07
    4.75  -13.70   -7.42
   -6.51   -8.24    3.39
    3.01  -12.50    9.07
  -11.18   -9.24    8.51
    1.10  -14.46    9.35
   -2.96  -11.54    7.22
   -1.71  -14.40    4.37
    2.10  -14.35    0.15
   -7.25  -12.56   -5.08
  -12.12   -7.91   -6.38
    1.85  -11.14    0.03
  -13.16   -5.66   -7.78
  -12.32   -7.64   -9.48
   -4.38  -11.77   -3.93
    0.50  -13.95    3.15
   -3.60  -14.01   -0.20
   -2.21  -14.33    0.90
   -0.09  -12.84   -8.80
   -2.77  -11.29    6.18
   -2.20  -10.19   -3.48
   -5.94   -8.95   -3.55
   -7.78  -11.08    9.50
   -7.56   -8.33    2.93
   -7.45  -11.53   -3.56
    4.52  -11.82    0.33
    0.82  -13.97   -5.78
    4.11  -12.28    7.27
    2.31  -14.31    6.83
   -4.49   -9.37    6.27
   -1.21  -13.05    5.58
   -7.27  -12.55   -9.43
   -8.22   -9.47   -5.13
   -4.30   -9.86   -7.26
   -6.63  -10.77    5.25
    0.57  -14.49   -1.65
    1.45  -14.43    5.43
   -0.05  -14.50   -6.52
   -1.27  -11.81   -3.95
    5.04  -12.63    0.76
    2.51  -12.27    1.78
   -6.88  -12.73    8.10
    2.05  -13.06    6.36
  -10.12  -10.39    3.42
    3.33  -12.92   -8.27
   -9.25  -11.17    8.59
   -9.22   -8.97   -7.97
   -9.14  -11.24    0.47
   -1.90  -12.12   -8.53
   -0.81  -14.18    1.75
   -0.64  -11.58   -0.94
   -5.44   -8.49   -6.19
   -7.66  -12.31   -1.50
   -1.43  -12.76   -7.79
  -11.25   -7.12   -0.65
   -1.16  -13.46   -8.66
   -5.15  -11.41    7.79
    1.14  -14.46   -6.71
    2.17  -13.55    5.49
   -2.96  -14.19   -0.95
   -0.85  -12.07    8.19
    2.93  -13.41    9.49
   -0.01  -14.50   -5.52
   -2.82  -12.77   -0.60
   -1.76  -10.23   -5.88
   -7.69  -12.29    1.16
  -10.04  -10.46   -0.87
   -2.01  -11.75   -9.48
   -5.56  -10.52    7.59
  -10.46   -8.52   -3.84
    4.72  -13.71   -4.99
   -3.32   -9.66   -2.66
    2.72  -11.89    5.43
    1.13  -11.79   -1.33
   -1.75  -13.55   -2.15
   -3.17  -11.10    4.41
  -10.04   -6.96    7.95
    0.23  -11.86   -8.74
   -5.55  -13.40   -5.80
   -9.95   -9.37    7.06
    0.23  -14.50   -9.49
   -9.13   -8.88   -4.44
    3.75  -12.00   -2.22
  -10.80   -9.65   -3.09
   -6.99  -11.84    5.55
  -11.68   -8.52    9.47
   -6.91  -10.97   -4.24
   -1.02  -13.45   -1.34
    0.83  -11.60    2.11
    3.05  -11.69   -6.07
  -10.00  -10.47   -8.54
    2.53  -11.75    8.62
   -8.11  -12.01   -9.50
   -3.98  -10.39   -8.73
   -3.29  -13.32    6.97
   -4.66  -11.30   -7.87
   -4.16  -13.85    3.22
   -1.16  -11.55   -1.82
   -1.02  -14.46   -9.50
   -8.73  -11.58   -0.37
   -4.73  -13.71    1.42
    1.48  -11.54    3.73
    0.07  -13.07   -7.16
    4.86  -12.51   -3.42
   -5.66  -13.34    9.48
   -9.19  -10.05    6.58
    1.12  -12.66   -7.44
   -0.28  -13.76   -3.17
  -11.11   -7.83    8.52
   -6.73  -10.59    9.50
    6.39  -13.02   -6.40
  -12.00   -8.14   -2.42
    1.83  -12.68    9.18
   -3.00   -9.79   -8.50
    3.81  -11.00   -2.18
   -5.23  -11.99    4.43
   -2.78  -11.00   -5.41
   -2.70  -12.34    8.03
   -0.97  -10.23   -4.79
    5.33  -12.31   -1.86
   -0.52  -14.49   -0.02
   -4.82  -13.67    2.49
   -5.77  -11.36    2.83
    0.59  -12.71   -6.17
    1.25  -13.64    4.84
  -10.40  -10.06    9.50
    3.78  -12.30   -9.50
   -4.82   -9.33   -8.54
   -6.84  -12.69    3.67
    4.18  -13.88    0.61
   -7.07   -9.07   -9.45
   -6.94  -12.73   -2.18
   -4.72  -13.71    9.50
   -4.55  -10.61    7.75
    1.53  -13.47   -2.48
    1.57  -11.89   -9.21
   -2.75  -12.77   -8.54
   -6.99   -8.55    4.26
  -10.45   -9.78    6.30
   -3.86  -12.28    3.58
   -5.63  -11.66   -9.49
   -4.56   -9.46    2.29
    1.37  -12.21   -6.56
   -7.45  -11.33   -1.40
  -12.77   -6.70   -9.50
   -6.46  -11.97   -8.31
    4.70  -12.94    5.28
   -3.43  -14.09    8.33
    4.65  -12.56   -6.18
   -7.46   -8.99   -2.80
   -9.05   -7.70    2.84
   -0.93  -14.47    9.50
   -2.77  -11.30   -7.33
   -0.93  -12.36   -8.55
   -5.98  -12.36   -0.85
    0.92  -13.58    0.75
   -4.20   -9.19   -6.25
   -9.87   -7.52   -7.15
   -8.63  -10.09   -9.16
   -3.18  -10.50    5.64
   -4.91  -12.79    3.05
   -8.91  -10.23    8.59
   -8.02  -10.35   -8.41
    4.19  -11.28   -0.78
    1.99  -12.97    4.69
   -8.66   -7.84    7.43
   -8.73  -10.32   -5.42
   -2.67  -12.05    9.50
    3.99  -13.92   -1.74
   -5.29  -13.49    5.28
    0.59  -13.69   -0.19
   -3.68  -12.00    7.98
   -4.51  -13.78   -8.57
   -9.89  -10.61    6.13
   -0.95  -11.47    2.22
   -2.22  -14.33    9.50
   -1.59  -14.41   -3.63
   -3.25  -13.28   -7.24
   -7.41  -11.54    8.61
   -8.04  -10.52   -0.90
   -5.09   -9.81   -5.06
   -6.37  -12.03    7.57
   -2.32  -11.68    4.68
   -1.38  -10.37   -2.93
    1.16  -12.83    0.11
   -8.38   -8.32    3.66
   -1.65  -13.67    2.90
   -5.11  -13.57   -2.23
  -10.34  -10.16    0.05
   -3.92  -10.19    6.24
   -7.90  -12.12    6.05
   -4.73   -8.93   -4.42
    2.56  -13.93   -3.34
   -1.75  -13.45    9.50
   -5.95  -11.16   -6.74
   -5.42  -12.74    7.00
   -1.99  -14.36   -0.79
    4.28  -13.86   -0.78
   -8.88  -10.19   -7.85
   -9.27  -11.15   -4.73
   -4.90   -9.62   -9.50
   -7.55  -12.32   -2.90
    4.88  -13.01    2.72
    1.24  -13.28   -8.72
   -1.21  -11.87   -7.14
   -2.97  -14.18   -6.67
   -1.86  -12.70   -1.62
   -3.83  -11.70   -3.10
   -1.23  -14.45   -6.11
   -8.52  -11.67   -1.35
    2.24  -14.29    4.83
   -8.68  -11.55    6.51
    0.25  -11.84   -5.82
   -0.29  -12.33    1.09
   -3.94  -13.96   -3.47
   -0.10  -12.39   -0.67
    0.51  -10.65    0.42
    0.95  -13.68   -3.28
   -3.44  -10.58    7.79
    5.22  -13.53   -3.28
   -0.34  -13.71    9.07
    5.73  -11.99    4.15
    5.33  -12.49   -0.88
   -9.58   -9.98   -1.62
   -3.54  -14.06   -5.85
  -13.22   -5.96   -9.00
  -11.74   -7.82    5.44
    0.49  -13.53    6.63
   -6.22   -9.31   -8.81
    0.14  -12.40   -7.89
   -8.02  -12.08    7.04
    0.03  -14.50   -2.58
   -2.16  -12.80   -3.54
    2.68  -11.74    6.45
    2.33  -12.67   -3.89
   -2.80  -11.35   -9.02
    5.23  -12.93   -4.25
    2.97  -13.17    4.62
   -3.36  -12.47   -5.76
   -4.13  -13.90    7.64
  -10.55   -9.95   -4.03
   -7.57   -8.85    6.98
   -3.47  -14.08    5.73
    4.58  -12.85   -9.25
   -8.02   -8.27    8.06
   -1.93   -9.77    8.41
   -6.45  -12.97   -6.42
   -3.88   -9.84    9.49
   -8.56   -7.86    5.91
    3.29  -14.12    1.00
    3.23  -12.57    6.56
   -6.36   -9.46   -6.03
   -4.60  -13.74   -5.85
   -8.08  -12.04    9.50
   -7.27   -9.66   -4.87
   -2.70  -12.48   -9.50
  -11.58   -8.42   -3.39
   -0.31  -11.78    9.46
   -0.99  -14.47   -4.74
    5.88  -12.48    3.29
  -10.35  -10.15    5.38
   -5.97  -13.21   -3.69
   -3.51  -13.29   -5.21
    2.73  -12.91   -9.50
   -5.20  -10.74   -7.25
   -4.42  -13.81   -4.33
   -0.51  -13.67   -5.28
   -7.77  -10.54    6.34
    5.77  -12.71   -8.60
   -4.56  -11.94   -9.50
   -4.85  -13.66   -3.19
   -9.20   -8.26    0.09
    2.25  -12.43   -6.13
   -6.62  -11.78   -9.40
   -6.06   -8.80    7.44
  -10.53   -7.69    4.71
   -3.54  -14.06   -8.53
   -9.64  -10.83    5.18
    2.34  -14.31    9.50
  -10.22   -8.74    2.93
[...]
POINT_DATA 2000
SCALARS radius float
LOOKUP_TABLE default
  0.500000000000000     
  0.500000000000000     
  0.500000000000000     
  0.500000000000000     
  0.500000000000000     
  0.500000000000000     
  0.500000000000000     
  0.500000000000000     
  0.500000000000000     
  0.500000000000000     
  0.500000000000000     
  0.500000000000000     
  0.500000000000000     
  0.500000000000000     
  0.500000000000000     
  0.500000000000000     
  0.500000000000000     
  0.500000000000000     
  0.500000000000000     
  0.500000000000000     
  0.500000000000000     
  0.500000000000000     
  0.500000000000000     
  0.500000000000000     
  0.500000000000000     
  0.500000000000000     
  0.500000000000000     
  0.500000000000000     
  0.500000000000000     
  0.500000000000000     
  0.500000000000000     
  0.500000000000000     
  0.500000000000000     
  0.500000000000000     
  0.500000000000000     
  0.500000000000000     
  0.500000000000000     
  0.500000000000000     
  0.500000000000000     
  0.500000000000000     
  0.500000000000000     
  0.500000000000000     
  0.500000000000000     
  0.500000000000000     
  0.500000000000000     
  0.500000000000000     
  0.500000000000000     
  0.500000000000000     
  0.500000000000000     
  0.500000000000000     
  0.500000000000000     
  0.500000000000000     
  0.500000000000000     
  0.500000000000000     
  0.500000000000000     
  0.500000000000000     
  0.500000000000000     
  0.500000000000000     
  0.500000000000000     
  0.500000000000000     
  0.500000000000000     
  0.500000000000000     
  0.500000000000000     
  0.500000000000000     
  0.500000000000000     
  0.500000000000000     
  0.500000000000000     
  0.500000000000000     
  0.500000000000000     
  0.500000000000000     
  0.500000000000000     
  0.500000000000000     
  0.500000000000000     
  0.500000000000000     
  0.500000000000000     
  0.500000000000000     
  0.500000000000000     
  0.500000000000000     
  0.500000000000000     
  0.500000000000000     
  0.500000000000000     
  0.500000000000000     
  0.500000000000000     
  0.500000000000000     
  0.500000000000000     
  0.500000000000000     
  0.500000000000000     
  0.500000000000000     
  0.500000000000000     
  0.500000000000000     
  0.500000000000000     
  0.500000000000000     
  0.500000000000000     
  0.500000000000000     
  0.500000000000000     
  0.500000000000000     
  0.500000000000000     
  0.500000000000000     
  0.500000000000000     
  0.500000000000000     
  0.500000000000000     
  0.500000000000000     
  0.500000000000000     
  0.500000000000000     
  0.500000000000000     
  0.500000000000000     
  0.500000000000000     
  0.500000000000000     
  0.500000000000000     
  0.500000000000000     
  0.500000000000000     
  0.500000000000000     
  0.500000000000000     
  0.500000000000000     
  0.500000000000000     
  0.500000000000000     
  0.500000000000000     
  0.500000000000000     
  0.500000000000000     
  0.500000000000000     
  0.500000000000000     
  0.500000000000000     
  0.500000000000000     
  0.500000000000000     
  0.500000000000000     
  0.500000000000000     
  0.500000000000000     
  0.500000000000000     
  0.500000000000000     
  0.500000000000000     
  0.500000000000000     
  0.500000000000000     
  0.500000000000000     
  0.500000000000000     
  0.500000000000000     
  0.500000000000000     
  0.500000000000000     
  0.500000000000000     
  0.500000000000000     
  0.500000000000000     
  0.500000000000000     
  0.500000000000000     
  0.500000000000000     
  0.500000000000000     
  0.500000000000000     
  0.500000000000000     
  0.500000000000000     
  0.500000000000000     
  0.500000000000000     
  0.500000000000000     
  0.500000000000000     
  0.500000000000000     
  0.500000000000000     
  0.500000000000000     
  0.500000000000000     
  0.500000000000000     
  0.500000000000000     
  0.500000000000000     
  0.500000000000000     
  0.500000000000000     
  0.500000000000000     
  0.500000000000000     
  0.500000000000000     
  0.500000000000000     
  0.500000000000000     
  0.500000000000000     
  0.500000000000000     
  0.500000000000000     
  0.500000000000000     
  0.500000000000000     
  0.500000000000000     
  0.500000000000000     
  0.500000000000000     
  0.500000000000000     
  0.500000000000000     
  0.500000000000000     
  0.500000000000000     
  0.500000000000000     
  0.500000000000000     
  0.500000000000000     
  0.500000000000000     
  0.500000000000000     
  0.500000000000000     
  0.500000000000000     
  0.500000000000000     
  0.500000000000000     
  0.500000000000000     
  0.500000000000000     
  0.500000000000000     
  0.500000000000000     
  0.500000000000000     
  0.500000000000000     
  0.500000000000000     
  0.500000000000000     
  0.500000000000000     
  0.500000000000000     
  0.500000000000000     
  0.500000000000000     
  0.500000000000000     
  0.500000000000000     
  0.500000000000000     
  0.500000000000000     
  0.500000000000000     
  0.500000000000000     
  0.500000000000000     
  0.500000000000000     
  0.500000000000000     
  0.500000000000000     
  0.500000000000000     
  0.500000000000000     
  0.500000000000000     
  0.500000000000000     
  0.500000000000000     
  0.500000000000000     
  0.500000000000000     
  0.500000000000000     
  0.500000000000000     
  0.500000000000000     
  0.500000000000000     
  0.500000000000000     
  0.500000000000000     
  0.500000000000000     
  0.500000000000000     
  0.500000000000000     
  0.500000000000000     
  0.500000000000000     
  0.500000000000000     
  0.500000000000000     
  0.500000000000000     
  0.500000000000000     
  0.500000000000000     
  0.500000000000000     
  0.500000000000000     
  0.500000000000000     
  0.500000000000000     
  0.500000000000000     
  0.500000000000000     
  0.500000000000000     
  0.500000000000000     
  0.500000000000000     
  0.500000000000000     
  0.500000000000000     
  0.500000000000000     
  0.500000000000000     
  0.500000000000000     
  0.500000000000000     
  0.500000000000000     
  0.500000000000000     
  0.500000000000000     
  0.500000000000000     
  0.500000000000000     
  0.500000000000000     
  0.500000000000000     
  0.500000000000000     
  0.500000000000000     
  0.500000000000000     
  0.500000000000000     
  0.500000000000000     
  0.500000000000000     
  0.500000000000000     
  0.500000000000000     
  0.500000000000000     
  0.500000000000000     
  0.500000000000000     
  0.500000000000000     
  0.500000000000000     
  0.500000000000000     
  0.500000000000000     
  0.500000000000000     
  0.500000000000000     
  0.500000000000000     
  0.500000000000000     
  0.500000000000000     
  0.500000000000000     
  0.500000000000000     
  0.500000000000000     
  0.500000000000000     
  0.500000000000000     
  0.500000000000000     
  0.500000000000000     
  0.500000000000000     
  0.500000000000000     
  0.500000000000000     
  0.500000000000000     
  0.500000000000000     
  0.500000000000000     
  0.500000000000000     
  0.500000000000000     
  0.500000000000000     
  0.500000000000000     
  0.500000000000000     
  0.500000000000000     
  0.500000000000000     
  0.500000000000000     
  0.500000000000000     
  0.500000000000000     
  0.500000000000000     
  0.500000000000000     
  0.500000000000000     
  0.500000000000000     
  0.500000000000000     
  0.500000000000000     
  0.500000000000000     
  0.500000000000000     
  0.500000000000000     
  0.500000000000000     
  0.500000000000000     
  0.500000000000000     
  0.500000000000000     
  0.500000000000000     
  0.500000000000000     
  0.500000000000000     
  0.500000000000000     
  0.500000000000000     
  0.500000000000000     
  0.500000000000000     
  0.500000000000000     
  0.500000000000000     
  0.500000000000000     
  0.500000000000000     
  0.500000000000000     
  0.500000000000000     
  0.500000000000000     
  0.500000000000000     
  0.500000000000000     
  0.500000000000000     
  0.500000000000000     
  0.500000000000000     
  0.500000000000000     
  0.500000000000000     
  0.500000000000000     
  0.500000000000000     
  0.500000000000000     
  0.500000000000000     
  0.500000000000000     
  0.500000000000000     
  0.500000000000000     
  0.500000000000000     
  0.500000000000000     
  0.500000000000000     
  0.500000000000000     
  0.500000000000000     
  0.500000000000000     
  0.500000000000000     
  0.500000000000000     
  0.500000000000000     
  0.500000000000000     
  0.500000000000000     
  0.500000000000000     
  0.500000000000000     
  0.500000000000000     
  0.500000000000000     
  0.500000000000000     
  0.500000000000000     
  0.500000000000000     
  0.500000000000000     
  0.500000000000000     
  0.500000000000000     
  0.500000000000000     
  0.500000000000000     
  0.500000000000000     
  0.500000000000000     
  0.500000000000000     
  0.500000000000000     
  0.500000000000000     
  0.500000000000000     
  0.500000000000000     
  0.500000000000000     
  0.500000000000000     
  0.500000000000000     
  0.500000000000000     
  0.500000000000000     
  0.500000000000000     
  0.500000000000000     
  0.500000000000000     
  0.500000000000000     
  0.500000000000000     
  0.500000000000000     
  0.500000000000000     
  0.500000000000000     
  0.500000000000000     
  0.500000000000000     
  0.500000000000000     
  0.500000000000000     
  0.500000000000000     
  0.500000000000000     
  0.500000000000000     
  0.500000000000000     
  0.500000000000000     
  0.500000000000000     
  0.500000000000000     
  0.500000000000000     
  0.500000000000000     
  0.500000000000000     
  0.500000000000000     
  0.500000000000000     
  0.500000000000000     
  0.500000000000000     
  0.500000000000000     
  0.500000000000000     
  0.500000000000000     
  0.500000000000000     
  0.500000000000000     
  0.500000000000000     
  0.500000000000000     
  0.500000000000000     
  0.500000000000000     
  0.500000000000000     
  0.500000000000000     
  0.500000000000000     
  0.500000000000000     
  0.500000000000000     
  0.500000000000000     
  0.500000000000000     
  0.500000000000000     
  0.500000000000000     
  0.500000000000000     
  0.500000000000000     
  0.500000000000000     
  0.500000000000000     
  0.500000000000000     
  0.500000000000000     
  0.500000000000000     
  0.500000000000000     
  0.500000000000000     
  0.500000000000000     
  0.500000000000000     
  0.500000000000000     
  0.500000000000000     
  0.500000000000000     
  0.500000000000000     
  0.500000000000000     
  0.500000000000000     
  0.500000000000000     
  0.500000000000000     
  0.500000000000000     
  0.500000000000000     
  0.500000000000000     
  0.500000000000000     
  0.500000000000000     
  0.500000000000000     
  0.500000000000000     
  0.500000000000000     
  0.500000000000000     
  0.500000000000000     
  0.500000000000000     
  0.500000000000000     
  0.500000000000000     
  0.500000000000000     
  0.500000000000000     
  0.500000000000000     
  0.500000000000000     
  0.500000000000000     
  0.500000000000000     
  0.500000000000000     
  0.500000000000000     
  0.500000000000000     
  0.500000000000000     
  0.500000000000000     
  0.500000000000000     
  0.500000000000000     
  0.500000000000000     
  0.500000000000000     
  0.500000000000000     
  0.500000000000000     
  0.500000000000000     
  0.500000000000000     
  0.500000000000000     
  0.500000000000000     
  0.500000000000000     
  0.500000000000000     
  0.500000000000000     
  0.500000000000000     
  0.500000000000000     
  0.500000000000000     
  0.500000000000000     
  0.500000000000000     
  0.500000000000000     
  0.500000000000000     
  0.500000000000000     
  0.500000000000000     
  0.500000000000000     
  0.500000000000000     
  0.500000000000000     
  0.500000000000000     
  0.500000000000000     
  0.500000000000000     
  0.500000000000000     
  0.500000000000000     
  0.500000000000000     
  0.500000000000000     
  0.500000000000000     
  0.500000000000000     
  0.500000000000000     
  0.500000000000000     
  0.500000000000000     
  0.500000000000000     
  0.500000000000000     
  0.500000000000000     
  0.500000000000000     
  0.500000000000000     
  0.500000000000000     
  0.500000000000000     
  0.500000000000000     
  0.500000000000000     
  0.500000000000000     
  0.500000000000000     
  0.500000000000000     
  0.500000000000000     
  0.500000000000000     
  0.500000000000000     
  0.500000000000000     
  0.500000000000000     
  0.500000000000000     
  0.500000000000000     
  0.500000000000000     
  0.500000000000000     
  0.500000000000000     
  0.500000000000000     
  0.500000000000000     
  0.500000000000000     
  0.500000000000000     
  0.500000000000000     
  0.500000000000000     
  0.500000000000000     
  0.500000000000000     
  0.500000000000000     
  0.500000000000000     
  0.500000000000000     
  0.500000000000000     
  0.500000000000000     
  0.500000000000000     
  0.500000000000000     
  0.500000000000000     
  0.500000000000000     
  0.500000000000000     
  0.500000000000000     
  0.500000000000000     
  0.500000000000000     
  0.500000000000000     
  0.500000000000000     
  0.500000000000000     
  0.500000000000000     
  0.500000000000000     
  0.500000000000000     
  0.500000000000000     
  0.500000000000000     
  0.500000000000000     
  0.500000000000000     
  0.500000000000000     
  0.500000000000000     
  0.500000000000000     
  0.500000000000000     
  0.500000000000000     
  0.500000000000000     
  0.500000000000000     
  0.500000000000000     
  0.500000000000000     
  0.500000000000000     
  0.500000000000000     
  0.500000000000000     
  0.500000000000000     
  0.500000000000000     
  0.500000000000000     
  0.500000000000000     
  0.500000000000000     
  0.500000000000000     
  0.500000000000000     
  0.500000000000000     
  0.500000000000000     
  0.500000000000000     
  0.500000000000000     
  0.500000000000000     
  0.500000000000000     
  0.500000000000000     
  0.500000000000000     
  0.500000000000000     
  0.500000000000000     
  0.500000000000000     
  0.500000000000000     
  0.500000000000000     
  0.500000000000000     
  0.500000000000000     
  0.500000000000000     
  0.500000000000000     
  0.500000000000000     
  0.500000000000000     
  0.500000000000000     
  0.500000000000000     
  0.500000000000000     
  0.500000000000000     
  0.500000000000000     
  0.500000000000000     
  0.500000000000000     
  0.500000000000000     
  0.500000000000000     
  0.500000000000000     
  0.500000000000000     
  0.500000000000000     
  0.500000000000000     
  0.500000000000000     
  0.500000000000000     
  0.500000000000000     
  0.500000000000000     
  0.500000000000000     
  0.500000000000000     
  0.500000000000000     
  0.500000000000000     
  0.500000000000000     
  0.500000000000000     
  0.500000000000000     
  0.500000000000000     
  0.500000000000000     
  0.500000000000000     
  0.500000000000000     
  0.500000000000000     
  0.500000000000000     
  0.500000000000000     
  0.500000000000000     
  0.500000000000000     
  0.500000000000000     
  0.500000000000000     
  0.500000000000000     
  0.500000000000000     
  0.500000000000000     
  0.500000000000000     
  0.500000000000000     
  0.500000000000000     
  0.500000000000000     
  0.500000000000000     
  0.500000000000000     
  0.500000000000000     
  0.500000000000000     
  0.500000000000000     
  0.500000000000000     
  0.500000000000000     
  0.500000000000000     
  0.500000000000000     
  0.500000000000000     
  0.500000000000000     
  0.500000000000000     
  0.500000000000000     
  0.500000000000000     
  0.500000000000000     
  0.500000000000000     
  0.500000000000000     
  0.500000000000000     
  0.500000000000000     
  0.500000000000000     
  0.500000000000000     
  0.500000000000000     
  0.500000000000000     
  0.500000000000000     
  0.500000000000000     
  0.500000000000000     
  0.500000000000000     
  0.500000000000000     
  0.500000000000000     
  0.500000000000000     
  0.500000000000000     
  0.500000000000000     
  0.500000000000000     
  0.500000000000000     
  0.500000000000000     
  0.500000000000000     
  0.500000000000000     
  0.500000000000000     
  0.500000000000000     
  0.500000000000000     
  0.500000000000000     
  0.500000000000000     
  0.500000000000000     
  0.500000000000000     
  0.500000000000000     
  0.500000000000000     
  0.500000000000000     
  0.500000000000000     
  0.500000000000000     
  0.500000000000000     
  0.500000000000000     
  0.500000000000000     
  0.500000000000000     
  0.500000000000000     
  0.500000000000000     
  0.500000000000000     
  0.500000000000000     
  0.500000000000000     
  0.500000000000000     
  0.500000000000000     
  0.500000000000000     
  0.500000000000000     
  0.500000000000000     
  0.500000000000000     
  0.500000000000000     
  0.500000000000000     
  0.500000000000000     
  0.500000000000000     
  0.500000000000000     
  0.500000000000000     
  0.500000000000000     
  0.500000000000000     
  0.500000000000000     
  0.500000000000000     
  0.500000000000000     
  0.500000000000000     
  0.500000000000000     
  0.500000000000000     
  0.500000000000000     
  0.500000000000000     
  0.500000000000000     
  0.500000000000000     
  0.500000000000000     
  0.500000000000000     
  0.500000000000000     
  0.500000000000000     
  0.500000000000000     
  0.500000000000000     
  0.500000000000000     
  0.500000000000000     
  0.500000000000000     
  0.500000000000000     
  0.500000000000000     
  0.500000000000000     
  0.500000000000000     
  0.500000000000000     
  0.500000000000000     
  0.500000000000000     
  0.500000000000000     
  0.500000000000000     
  0.500000000000000     
  0.500000000000000     
  0.500000000000000     
  0.500000000000000     
  0.500000000000000     
  0.500000000000000     
  0.500000000000000     
  0.500000000000000     
  0.500000000000000     
  0.500000000000000     
  0.500000000000000     
  0.500000000000000     
  0.500000000000000     
  0.500000000000000     
  0.500000000000000     
  0.500000000000000     
  0.500000000000000     
  0.500000000000000     
  0.500000000000000     
  0.500000000000000     
  0.500000000000000     
  0.500000000000000     
  0.500000000000000     
  0.500000000000000     
  0.500000000000000     
  0.500000000000000     
  0.500000000000000     
  0.500000000000000     
  0.500000000000000     
  0.500000000000000     
  0.500000000000000     
  0.500000000000000     
  0.500000000000000     
  0.500000000000000     
  0.500000000000000     
  0.500000000000000     
  0.500000000000000     
  0.500000000000000     
  0.500000000000000     
  0.500000000000000     
  0.500000000000000     
  0.500000000000000     
  0.500000000000000     
  0.500000000000000     
  0.500000000000000     
  0.500000000000000     
  0.500000000000000     
  0.500000000000000     
  0.500000000000000     
  0.500000000000000     
  0.500000000000000     
  0.500000000000000     
  0.500000000000000     
  0.500000000000000     
  0.500000000000000     
  0.500000000000000     
  0.500000000000000     
  0.500000000000000     
  0.500000000000000     
  0.500000000000000     
  0.500000000000000     
  0.500000000000000     
  0.500000000000000     
  0.500000000000000     
  0.500000000000000     
  0.500000000000000     
  0.500000000000000     
  0.500000000000000     