# vtk DataFile Version 5.1
Data.vtk
ASCII
DATASET UNSTRUCTURED_GRID
 
POINTS 2000 float
    1.81  -14.35   -1.23
    0.11  -10.97   -0.01
   -9.18  -11.15    2.99
   -4.15  -13.89   -2.41
   -2.65  -10.05    5.55
    1.69  -11.46   -9.39
    4.37  -13.47   -8.37
  -10.47   -6.78   -8.40
    1.75  -12.31   -2.41
   -6.38  -11.22   -0.91
   -6.04   -9.32   -2.86
   -3.26  -10.13   -6.15
    0.25  -13.52   -2.55
    0.02  -13.02    2.67
  -11.27   -7.69   -0.82
    5.78  -13.30    3.01
   -2.34  -11.20    2.96
   -3.14  -13.24    7.92
   -5.34  -13.48    8.54
  -11.50   -7.49   -7.16
  -11.67   -8.10   -1.70
   -6.91  -12.75    8.46
   -3.14  -11.46   -9.50
  -11.15   -9.15   -9.50
   -1.26  -13.67   -1.84
   -7.16   -8.73   -1.31
   -9.52   -8.09    5.87
   -4.26  -11.43    7.58
   -3.33   -9.89   -1.13
   -2.90   -9.34    7.34
  -10.19  -10.29   -6.62
    3.78  -11.79    0.42
   -5.29  -12.30    9.50
    1.83  -12.92   -1.63
  -12.79   -6.79   -6.24
   -8.59  -11.68    8.72
    2.05  -11.86    4.19
   -8.81   -8.92    4.05
   -4.61   -9.45    1.24
   -0.38  -12.84    1.14
    2.48  -14.29   -3.49
   -8.58  -11.69   -2.50
    0.39  -12.00   -5.24
   -2.61  -13.44    0.09
   -3.00   -9.60   -4.86
    5.63  -13.36    4.36
    0.64  -14.41    8.57
   -5.75  -12.29   -6.53
    0.82  -11.87    0.57
   -9.82  -10.57   -7.92
   -3.36  -14.10   -9.50
   -7.82   -8.30    8.22
   -0.94  -10.79    5.51
   -3.55  -11.53    1.48
    1.66  -10.41    2.31
    0.01  -11.87   -0.48
    5.53  -12.45   -5.03
   -8.04   -9.16    1.50
  -10.41   -8.74    0.71
    0.29  -12.86   -8.90
   -8.05   -8.48   -0.89
   -7.32   -8.86   -7.96
   -3.91  -12.37    7.59
   -6.23  -13.09    1.87
    3.18  -14.15   -0.04
   -7.32  -10.51    0.51
   -5.19  -13.17   -8.59
    0.62  -11.66    2.31
   -1.60  -14.35   -8.54
   -0.43  -12.79   -2.48
   -2.34  -10.13    1.97
  -11.48   -6.32   -7.59
   -1.22  -13.57   -8.05
    0.78  -10.74    2.66
    5.70  -13.11    7.95
   -9.65   -7.13   -6.41
    2.62  -13.26    8.35
   -6.44  -12.99   -6.76
   -4.54  -11.50    1.63
    5.82  -13.28    0.10
  -10.01   -8.86    9.28
    4.53  -13.02    7.82
   -4.81  -12.83   -4.62
    5.59  -13.38   -9.14
   -8.38  -10.59   -7.86
   -1.12  -12.52   -6.84
  -10.41   -9.51    1.62
    4.46  -11.68   -5.08
   -4.54   -9.51    0.01
   -2.41  -11.84    5.14
    1.09  -12.24   -0.31
   -9.91   -8.81   -9.46
    1.42  -10.19   -4.89
   -1.84  -10.03    3.65
    4.06  -13.92    9.20
    2.28  -11.99   -1.60
   -8.36  -10.67    2.56
   -8.50   -9.49    5.15
   -0.37  -14.50   -5.36
   -4.85   -9.49   -0.97
   -5.40  -13.44    2.32
    4.80  -12.27   -4.35
   -0.86  -10.71    0.23
    1.75  -11.36    5.03
   -6.82   -9.35    1.34
    5.33  -12.90   -7.24
   -1.37  -14.42    5.15
    0.44  -10.92   -4.12
  -12.12   -6.98    8.13
   -8.70  -10.41    3.46
   -5.45   -8.49    4.68
   -8.21  -10.89   -1.81
    2.40  -14.29   -2.03
   -0.56  -12.84   -7.68
    1.28  -14.44    5.18
    2.28  -12.76   -8.08
  -11.28   -6.76   -0.45
    0.76  -11.87   -4.15
   -8.01  -12.08    7.60
    0.21  -11.00    5.15
   -4.89  -12.58    8.63
   -2.58   -9.88    8.15
   -5.75   -9.58    7.51
    1.70  -11.45    2.74
    2.22  -10.96   -0.55
    5.41  -12.75   -3.06
   -2.38  -14.30   -5.81
   -9.91   -9.49    2.92
   -6.02  -12.20   -9.50
   -9.32   -9.62   -9.50
   -4.06  -12.28   -4.09
   -0.91  -11.10    1.63
    6.80  -12.81   -2.45
    1.48  -11.37   -0.01
   -3.18  -11.46   -6.66
   -5.72  -11.29    8.59
  -12.25   -7.50   -9.50
   -4.00  -13.66   -7.44
   -1.76  -13.17    9.41
   -1.28  -14.44    0.68
    1.83  -12.87   -0.62
  -11.18   -9.20    5.09
   -5.00  -10.40   -5.63
   -0.54  -11.21    4.42
   -1.39  -11.29    2.49
  -10.47   -8.77    8.39
   -5.90  -10.95    5.23
   -4.18  -13.08   -9.50
   -5.67  -12.21   -8.38
   -8.35   -8.15   -8.25
    1.07  -12.42    6.40
   -1.32  -10.74   -0.66
   -3.05  -11.09    2.27
    1.24  -12.46   -3.50
  -12.86   -6.70   -9.48
   -7.82  -10.58    1.71
   -6.92  -10.93    1.97
    4.08  -13.91    7.07
   -1.46  -11.29    6.65
    0.16  -14.49    7.70
   -2.18   -9.93   -4.37
    3.09  -14.17    9.50
  -10.54   -9.94   -9.47
    1.03  -14.46    4.15
    3.00  -12.79   -7.31
   -2.51  -10.83    0.85
  -11.57   -8.59   -3.89
  -11.85   -8.26   -8.49
    5.32  -13.49   -2.37
   -3.97  -10.77   -5.85
   -0.19  -14.50    2.09
   -1.95  -11.29   -5.81
   -4.76  -11.54    8.56
   -0.41  -11.51   -4.90
   -7.39  -10.88    5.69
    1.94  -12.65    2.10
   -6.23   -9.85    9.50
   -1.21  -10.45    7.37
   -1.51  -11.22   -2.87
   -5.51  -12.63   -1.01
   -7.87   -8.50   -3.63
    4.74  -13.70    3.87
    1.74  -14.40    2.10
   -0.37  -11.81   -7.14
   -1.76  -11.19    9.50
    3.04  -13.47   -5.43
   -7.03   -9.02   -3.38
  -10.46  -10.04   -8.48
   -6.31   -8.76    3.13
   -9.87  -10.48   -3.38
   -7.16  -10.38   -1.41
   -4.21  -13.08    6.15
  -11.81   -8.41    9.49
   -6.49   -9.40   -7.85
    4.03  -13.84   -4.14
    2.09  -14.18    9.47
    2.40  -11.86   -5.91
   -6.01  -13.20   -9.49
   -9.83  -10.66   -1.51
    2.73  -12.72   -0.05
   -2.32  -12.84    5.30
   -8.19  -11.06    9.45
    0.69  -13.71   -8.55
   -6.75  -11.98   -1.65
   -0.37  -13.56    4.64
  -10.18   -7.73   -8.51
    4.99  -13.61   -4.64
   -1.20  -10.46    4.32
    4.41  -12.64   -7.55
   -5.24   -9.64   -6.24
   -1.54  -11.35    4.94
   -7.68  -10.76   -9.47
    2.75  -12.53    3.94
   -2.55  -14.06   -8.59
    3.52  -11.84   -5.78
    1.34  -12.40    1.25
    2.55  -11.95    0.56
  -11.21   -9.20    9.28
   -4.91   -9.83   -7.17
   -8.83   -8.67   -4.11
   -1.60  -12.56    4.63
    1.13  -12.98    7.23
   -9.63   -8.09   -4.26
   -6.09  -11.19   -2.30
   -8.65  -10.17    9.43
   -7.05   -9.28    9.45
   -6.33   -9.73   -6.36
   -3.38  -14.10   -4.05
   -4.29   -9.02    6.22
   -4.32  -10.67   -8.77
  -11.40   -8.96   -5.64
    0.45  -14.49    5.91
   -4.77  -11.21   -7.41
   -3.67  -10.39    5.93
   -5.96   -8.50   -6.43
   -9.15   -9.39   -1.84
   -5.52  -10.23   -1.02
    4.28  -13.74    1.31
   -0.46  -13.70    3.61
   -7.85   -9.22   -6.44
   -4.23   -9.42    2.67
   -3.49  -14.06    7.47
   -5.58   -9.09   -7.14
   -5.95  -10.79   -8.65
    5.39  -13.46    5.33
   -9.62   -7.76    0.38
    1.09  -12.02   -7.31
    5.52  -12.25    1.71
   -4.33  -10.76    9.44
   -8.32   -7.99    9.06
   -7.98  -10.94   -2.85
   -0.69  -10.28   -6.26
   -0.88  -11.03   -7.50
  -11.10   -9.21    7.66
   -3.78  -14.00    9.50
   -1.72  -13.84    3.77
   -8.53  -10.23   -9.44
   -4.31  -13.84    6.79
   -4.61   -9.58   -5.20
    1.29  -12.15   -1.29
   -2.51  -11.83   -8.72
    1.89  -13.64   -4.96
   -4.65   -9.31    3.59
    1.86  -12.62    5.76
   -8.26   -8.17   -4.76
   -6.82  -12.71   -5.80
   -3.56  -14.06    3.34
    2.77  -12.01    3.02
   -5.39  -10.59   -6.66
    0.69  -11.50   -6.54
   -4.74  -10.74   -0.39
   -5.38  -12.39    0.75
   -8.79   -9.12   -8.49
   -3.46  -14.08   -8.17
    0.44  -13.24   -7.70
  -10.74   -7.43    7.56
    1.59  -13.55    5.53
    1.02  -14.46    9.50
    5.33  -13.48   -8.07
   -8.81  -10.10    0.06
   -8.35  -10.67    6.87
   -9.33  -11.08    7.24
    3.65  -12.83   -5.90
   -3.56  -12.31    9.48
   -6.38   -9.73   -0.92
    3.08  -12.37    6.51
   -4.94  -12.61   -1.86
   -2.16  -12.01    6.94
    2.68  -11.86   -7.49
    0.29  -14.50    4.88
  -11.04   -9.01    2.24
    3.55  -12.92    8.03
   -3.05  -10.86   -1.82
    2.39  -13.56   -7.12
   -0.86  -11.40    9.03
    0.20  -11.88   -1.47
   -6.20  -13.11   -8.51
   -0.74  -11.93    5.08
   -3.63  -13.16    7.04
  -11.59   -8.48   -7.25
   -5.01  -13.61   -1.98
   -1.45  -14.43    8.22
   -5.19  -10.98    2.46
    3.02  -11.43   -4.01
    3.04  -14.18   -1.20
   -6.10  -13.13    8.00
    0.27  -12.75    5.85
  -11.96   -7.12   -7.97
    0.18  -10.89   -1.36
    3.41  -13.19    9.50
    1.31  -13.46   -6.51
   -2.72  -11.32    4.25
    4.63  -11.88   -0.12
   -2.21  -11.02   -1.29
   -0.34  -13.66   -9.50
   -1.88  -14.37   -7.22
   -5.33  -11.47   -9.50
    2.39  -13.70   -0.47
  -10.38   -8.64    4.04
   -5.70   -9.55   -4.87
   -9.78   -7.81   -9.50
    5.57  -12.57   -8.40
  -10.62   -9.87   -3.15
   -9.21  -11.20   -3.14
    3.20  -11.11   -2.47
    3.23  -12.15    1.26
   -1.81  -10.13    1.09
   -1.98  -14.36    9.47
   -7.92  -10.20   -6.65
    0.42  -13.82    3.15
    4.50  -12.58   -0.89
    0.22  -14.49   -2.29
   -9.98  -10.52    3.26
   -6.85  -10.58   -3.51
   -9.39   -8.13    8.43
   -4.61   -9.18   -2.10
    0.32  -11.65    9.50
   -7.96   -7.97    5.11
  -10.24   -9.12   -0.31
    3.53  -13.00   -1.88
    3.64  -12.35   -2.85
   -7.68  -10.26   -8.59
   -5.34  -13.46    6.37
   -7.14   -9.22    4.87
   -5.86   -9.51   -9.28
   -1.67  -10.57   -8.00
    4.19  -12.96    4.26
    1.55  -10.66   -2.52
   -1.78  -12.91   -5.97
   -6.92   -8.90    6.01
   -4.96   -9.80   -2.82
   -5.55  -10.44   -9.50
   -9.72   -8.41   -3.30
   -1.69  -10.36    2.70
   -2.81  -13.43   -6.03
    4.48  -13.46    6.10
    3.71  -13.41   -9.24
  -12.85   -6.19    8.95
    2.13  -12.70    4.77
   -3.47  -10.50   -3.44
  -13.38   -5.59    8.33
   -9.74   -9.49    8.49
    5.41  -12.43   -6.14
   -2.67  -12.77    9.50
   -6.06  -13.17    3.98
   -1.76  -10.26    0.10
   -1.03  -11.02    3.51
  -13.57   -4.86   -9.22
    4.23  -13.87   -2.60
    2.08  -13.17    7.51
   -2.05  -13.53   -6.71
    0.89  -13.41   -9.50
   -0.82  -14.48   -7.92
   -6.46   -8.09    8.59
    1.84  -11.67   -3.63
   -9.69   -8.52    2.58
   -5.07  -13.58    9.50
    4.46  -12.08    1.77
   -5.38  -10.87   -2.98
    2.51  -12.05   -8.75
  -10.81   -8.45   -8.86
    2.21  -12.72   -3.20
   -9.38   -9.52   -4.35
   -1.84  -12.77    6.37
    0.05  -11.25   -5.80
   -1.79  -11.79   -9.48
    6.24  -13.09   -1.16
   -1.05  -14.46    3.33
   -9.09   -7.85   -5.89
   -1.11  -14.46   -9.49
   -7.29   -8.34    9.14
    0.11  -14.07    9.35
    1.94  -11.93   -6.79
   -0.92  -13.70    9.50
    2.14  -12.16    6.80
   -3.32  -14.11    5.48
[...]
POINT_DATA 2000
SCALARS radius float
LOOKUP_TABLE default
  0.500000000000000     
  0.500000000000000     
  0.500000000000000     
  0.500000000000000     
  0.500000000000000     
  0.500000000000000     
  0.500000000000000     
  0.500000000000000     
  0.500000000000000     
  0.500000000000000     
  0.500000000000000     
  0.500000000000000     
  0.500000000000000     
  0.500000000000000     
  0.500000000000000     
  0.500000000000000     
  0.500000000000000     
  0.500000000000000     
  0.500000000000000     
  0.500000000000000     
  0.500000000000000     
  0.500000000000000     
  0.500000000000000     
  0.500000000000000     
  0.500000000000000     
  0.500000000000000     
  0.500000000000000     
  0.500000000000000     
  0.500000000000000     
  0.500000000000000     
  0.500000000000000     
  0.500000000000000     
  0.500000000000000     
  0.500000000000000     
  0.500000000000000     
  0.500000000000000     
  0.500000000000000     
  0.500000000000000     
  0.500000000000000     
  0.500000000000000     
  0.500000000000000     
  0.500000000000000     
  0.500000000000000     
  0.500000000000000     
  0.500000000000000     
  0.500000000000000     
  0.500000000000000     
  0.500000000000000     
  0.500000000000000     
  0.500000000000000     
  0.500000000000000     
  0.500000000000000     
  0.500000000000000     
  0.500000000000000     
  0.500000000000000     
  0.500000000000000     
  0.500000000000000     
  0.500000000000000     
  0.500000000000000     
  0.500000000000000     
  0.500000000000000     
  0.500000000000000     
  0.500000000000000     
  0.500000000000000     
  0.500000000000000     
  0.500000000000000     
  0.500000000000000     
  0.500000000000000     
  0.500000000000000     
  0.500000000000000     
  0.500000000000000     
  0.500000000000000     
  0.500000000000000     
  0.500000000000000     
  0.500000000000000     
  0.500000000000000     
  0.500000000000000     
  0.500000000000000     
  0.500000000000000     
  0.500000000000000     
  0.500000000000000     
  0.500000000000000     
  0.500000000000000     
  0.500000000000000     
  0.500000000000000     
  0.500000000000000     
  0.500000000000000     
  0.500000000000000     
  0.500000000000000     
  0.500000000000000     
  0.500000000000000     
  0.500000000000000     
  0.500000000000000     
  0.500000000000000     
  0.500000000000000     
  0.500000000000000     
  0.500000000000000     
  0.500000000000000     
  0.500000000000000     
  0.500000000000000     
  0.500000000000000     
  0.500000000000000     
  0.500000000000000     
  0.500000000000000     
  0.500000000000000     
  0.500000000000000     
  0.500000000000000     
  0.500000000000000     
  0.500000000000000     
  0.500000000000000     
  0.500000000000000     
  0.500000000000000     
  0.500000000000000     
  0.500000000000000     
  0.500000000000000     
  0.500000000000000     
  0.500000000000000     
  0.500000000000000     
  0.500000000000000     
  0.500000000000000     
  0.500000000000000     
  0.500000000000000     
  0.500000000000000     
  0.500000000000000     
  0.500000000000000     
  0.500000000000000     
  0.500000000000000     
  0.500000000000000     
  0.500000000000000     
  0.500000000000000     
  0.500000000000000     
  0.500000000000000     
  0.500000000000000     
  0.500000000000000     
  0.500000000000000     
  0.500000000000000     
  0.500000000000000     
  0.500000000000000     
  0.500000000000000     
  0.500000000000000     
  0.500000000000000     
  0.500000000000000     
  0.500000000000000     
  0.500000000000000     
  0.500000000000000     
  0.500000000000000     
  0.500000000000000     
  0.500000000000000     
  0.500000000000000     
  0.500000000000000     
  0.500000000000000     
  0.500000000000000     
  0.500000000000000     
  0.500000000000000     
  0.500000000000000     
  0.500000000000000     
  0.500000000000000     
  0.500000000000000     
  0.500000000000000     
  0.500000000000000     
  0.500000000000000     
  0.500000000000000     
  0.500000000000000     
  0.500000000000000     
  0.500000000000000     
  0.500000000000000     
  0.500000000000000     
  0.500000000000000     
  0.500000000000000     
  0.500000000000000     
  0.500000000000000     
  0.500000000000000     
  0.500000000000000     
  0.500000000000000     
  0.500000000000000     
  0.500000000000000     
  0.500000000000000     
  0.500000000000000     
  0.500000000000000     
  0.500000000000000     
  0.500000000000000     
  0.500000000000000     
  0.500000000000000     
  0.500000000000000     
  0.500000000000000     
  0.500000000000000     
  0.500000000000000     
  0.500000000000000     
  0.500000000000000     
  0.500000000000000     
  0.500000000000000     
  0.500000000000000     
  0.500000000000000     
  0.500000000000000     
  0.500000000000000     
  0.500000000000000     
  0.500000000000000     
  0.500000000000000     
  0.500000000000000     
  0.500000000000000     
  0.500000000000000     
  0.500000000000000     
  0.500000000000000     
  0.500000000000000     
  0.500000000000000     
  0.500000000000000     
  0.500000000000000     
  0.500000000000000     
  0.500000000000000     
  0.500000000000000     
  0.500000000000000     
  0.500000000000000     
  0.500000000000000     
  0.500000000000000     
  0.500000000000000     
  0.500000000000000     
  0.500000000000000     
  0.500000000000000     
  0.500000000000000     
  0.500000000000000     
  0.500000000000000     
  0.500000000000000     
  0.500000000000000     
  0.500000000000000     
  0.500000000000000     
  0.500000000000000     
  0.500000000000000     
  0.500000000000000     
  0.500000000000000     
  0.500000000000000     
  0.500000000000000     
  0.500000000000000     
  0.500000000000000     
  0.500000000000000     
  0.500000000000000     
  0.500000000000000     
  0.500000000000000     
  0.500000000000000     
  0.500000000000000     
  0.500000000000000     
  0.500000000000000     
  0.500000000000000     
  0.500000000000000     
  0.500000000000000     
  0.500000000000000     
  0.500000000000000     
  0.500000000000000     
  0.500000000000000     
  0.500000000000000     
  0.500000000000000     
  0.500000000000000     
  0.500000000000000     
  0.500000000000000     
  0.500000000000000     
  0.500000000000000     
  0.500000000000000     
  0.500000000000000     
  0.500000000000000     
  0.500000000000000     
  0.500000000000000     
  0.500000000000000     
  0.500000000000000     
  0.500000000000000     
  0.500000000000000     
  0.500000000000000     
  0.500000000000000     
  0.500000000000000     
  0.500000000000000     
  0.500000000000000     
  0.500000000000000     
  0.500000000000000     
  0.500000000000000     
  0.500000000000000     
  0.500000000000000     
  0.500000000000000     
  0.500000000000000     
  0.500000000000000     
  0.500000000000000     
  0.500000000000000     
  0.500000000000000     
  0.500000000000000     
  0.500000000000000     
  0.500000000000000     
  0.500000000000000     
  0.500000000000000     
  0.500000000000000     
  0.500000000000000     
  0.500000000000000     
  0.500000000000000     
  0.500000000000000     
  0.500000000000000     
  0.500000000000000     
  0.500000000000000     
  0.500000000000000     
  0.500000000000000     
  0.500000000000000     
  0.500000000000000     
  0.500000000000000     
  0.500000000000000     
  0.500000000000000     
  0.500000000000000     
  0.500000000000000     
  0.500000000000000     
  0.500000000000000     
  0.500000000000000     
  0.500000000000000     
  0.500000000000000     
  0.500000000000000     
  0.500000000000000     
  0.500000000000000     
  0.500000000000000     
  0.500000000000000     
  0.500000000000000     
  0.500000000000000     
  0.500000000000000     
  0.500000000000000     
  0.500000000000000     
  0.500000000000000     
  0.500000000000000     
  0.500000000000000     
  0.500000000000000     
  0.500000000000000     
  0.500000000000000     
  0.500000000000000     
  0.500000000000000     
  0.500000000000000     
  0.500000000000000     
  0.500000000000000     
  0.500000000000000     
  0.500000000000000     
  0.500000000000000     
  0.500000000000000     
  0.500000000000000     
  0.500000000000000     
  0.500000000000000     
  0.500000000000000     
  0.500000000000000     
  0.500000000000000     
  0.500000000000000     
  0.500000000000000     
  0.500000000000000     
  0.500000000000000     
  0.500000000000000     
  0.500000000000000     
  0.500000000000000     
  0.500000000000000     
  0.500000000000000     
  0.500000000000000     
  0.500000000000000     
  0.500000000000000     
  0.500000000000000     
  0.500000000000000     
  0.500000000000000     
  0.500000000000000     
  0.500000000000000     
  0.500000000000000     
  0.500000000000000     
  0.500000000000000     
  0.500000000000000     
  0.500000000000000     
  0.500000000000000     
  0.500000000000000     
  0.500000000000000     
  0.500000000000000     
  0.500000000000000     
  0.500000000000000     
  0.500000000000000     
  0.500000000000000     
  0.500000000000000     
  0.500000000000000     
  0.500000000000000     
  0.500000000000000     
  0.500000000000000     
  0.500000000000000     
  0.500000000000000     
  0.500000000000000     
  0.500000000000000     
  0.500000000000000     
  0.500000000000000     
  0.500000000000000     
  0.500000000000000     
  0.500000000000000     
  0.500000000000000     
  0.500000000000000     
  0.500000000000000     
  0.500000000000000     
  0.500000000000000     
  0.500000000000000     
  0.500000000000000     
  0.500000000000000     
  0.500000000000000     
  0.500000000000000     
  0.500000000000000     
  0.500000000000000     
  0.500000000000000     
  0.500000000000000     
  0.500000000000000     
  0.500000000000000     
  0.500000000000000     
  0.500000000000000     
  0.500000000000000     
  0.500000000000000     
  0.500000000000000     
  0.500000000000000     
  0.500000000000000     
  0.500000000000000     
  0.500000000000000     
  0.500000000000000     
  0.500000000000000     
  0.500000000000000     
  0.500000000000000     
  0.500000000000000     
  0.500000000000000     
  0.500000000000000     
  0.500000000000000     
  0.500000000000000     
  0.500000000000000     
  0.500000000000000     
  0.500000000000000     
  0.500000000000000     
  0.500000000000000     
  0.500000000000000     
  0.500000000000000     
  0.500000000000000     
  0.500000000000000     
  0.500000000000000     
  0.500000000000000     
  0.500000000000000     
  0.500000000000000     
  0.500000000000000     
  0.500000000000000     
  0.500000000000000     
  0.500000000000000     
  0.500000000000000     
  0.500000000000000     
  0.500000000000000     
  0.500000000000000     
  0.500000000000000     
  0.500000000000000     
  0.500000000000000     
  0.500000000000000     
  0.500000000000000     
  0.500000000000000     
  0.500000000000000     
  0.500000000000000     
  0.500000000000000     
  0.500000000000000     
  0.500000000000000     
  0.500000000000000     
  0.500000000000000     
  0.500000000000000     
  0.500000000000000     
  0.500000000000000     
  0.500000000000000     
  0.500000000000000     
  0.500000000000000     
  0.500000000000000     
  0.500000000000000     
  0.500000000000000     
  0.500000000000000     
  0.500000000000000     
  0.500000000000000     
  0.500000000000000     
  0.500000000000000     
  0.500000000000000     
  0.500000000000000     
  0.500000000000000     
  0.500000000000000     
  0.500000000000000     
  0.500000000000000     
  0.500000000000000     
  0.500000000000000     
  0.500000000000000     
  0.500000000000000     
  0.500000000000000     
  0.500000000000000     
  0.500000000000000     
  0.500000000000000     
  0.500000000000000     
  0.500000000000000     
  0.500000000000000     
  0.500000000000000     
  0.500000000000000     
  0.500000000000000     
  0.500000000000000     
  0.500000000000000     
  0.500000000000000     
  0.500000000000000     
  0.500000000000000     
  0.500000000000000     
  0.500000000000000     
  0.500000000000000     
  0.500000000000000     
  0.500000000000000     
  0.500000000000000     
  0.500000000000000     
  0.500000000000000     
  0.500000000000000     
  0.500000000000000     
  0.500000000000000     
  0.500000000000000     
  0.500000000000000     
  0.500000000000000     
  0.500000000000000     
  0.500000000000000     
  0.500000000000000     
  0.500000000000000     
  0.500000000000000     
  0.500000000000000     
  0.500000000000000     
  0.500000000000000     
  0.500000000000000     
  0.500000000000000     
  0.500000000000000     
  0.500000000000000     
  0.500000000000000     
  0.500000000000000     
  0.500000000000000     
  0.500000000000000     
  0.500000000000000     
  0.500000000000000     
  0.500000000000000     
  0.500000000000000     
  0.500000000000000     
  0.500000000000000     
  0.500000000000000     
  0.500000000000000     
  0.500000000000000     
  0.500000000000000     
  0.500000000000000     
  0.500000000000000     
  0.500000000000000     
  0.500000000000000     
  0.500000000000000     
  0.500000000000000     
  0.500000000000000     
  0.500000000000000     
  0.500000000000000     
  0.500000000000000     
  0.500000000000000     
  0.500000000000000     
  0.500000000000000     
  0.500000000000000     
  0.500000000000000     
  0.500000000000000     
  0.500000000000000     
  0.500000000000000     
  0.500000000000000     
  0.500000000000000     
  0.500000000000000     
  0.500000000000000     
  0.500000000000000     
  0.500000000000000     
  0.500000000000000     
  0.500000000000000     
  0.500000000000000     
  0.500000000000000     
  0.500000000000000     
  0.500000000000000     
  0.500000000000000     
  0.500000000000000     
  0.500000000000000     
  0.500000000000000     
  0.500000000000000     
  0.500000000000000     
  0.500000000000000     
  0.500000000000000     
  0.500000000000000     
  0.500000000000000     
  0.500000000000000     
  0.500000000000000     
  0.500000000000000     
  0.500000000000000     
  0.500000000000000     
  0.500000000000000     
  0.500000000000000     
  0.500000000000000     
  0.500000000000000     
  0.500000000000000     
  0.500000000000000     
  0.500000000000000     
  0.500000000000000     
  0.500000000000000     
  0.500000000000000     
  0.500000000000000     
  0.500000000000000     
  0.500000000000000     
  0.500000000000000     
  0.500000000000000     
  0.500000000000000     
  0.500000000000000     
  0.500000000000000     
  0.500000000000000     
  0.500000000000000     
  0.500000000000000     
  0.500000000000000     
  0.500000000000000     
  0.500000000000000     
  0.500000000000000     
  0.500000000000000     
  0.500000000000000     
  0.500000000000000     
  0.500000000000000     
  0.500000000000000     
  0.500000000000000     
  0.500000000000000     
  0.500000000000000     
  0.500000000000000     
  0.500000000000000     
  0.500000000000000     
  0.500000000000000     
  0.500000000000000     
  0.500000000000000     
  0.500000000000000     
  0.500000000000000     
  0.500000000000000     
  0.500000000000000     
  0.500000000000000     
  0.500000000000000     
  0.500000000000000     
  0.500000000000000     
  0.500000000000000     
  0.500000000000000     
  0.500000000000000     
  0.500000000000000     
  0.500000000000000     
  0.500000000000000     
  0.500000000000000     
  0.500000000000000     
  0.500000000000000     
  0.500000000000000     
  0.500000000000000     
  0.500000000000000     
  0.500000000000000     
  0.500000000000000     
  0.500000000000000     
  0.500000000000000     
  0.500000000000000     
  0.500000000000000     
  0.500000000000000     
  0.500000000000000     
  0.500000000000000     
  0.500000000000000     
  0.500000000000000     
  0.500000000000000     
  0.500000000000000     
  0.500000000000000     
  0.500000000000000     
  0.500000000000000     
  0.500000000000000     
  0.500000000000000     
  0.500000000000000     
  0.500000000000000     
  0.500000000000000     
  0.500000000000000     
  0.500000000000000     
  0.500000000000000     
  0.500000000000000     
  0.500000000000000     
  0.500000000000000     
  0.500000000000000     
  0.500000000000000     
  0.500000000000000     
  0.500000000000000     
  0.500000000000000     
  0.500000000000000     
  0.500000000000000     
  0.500000000000000     
  0.500000000000000     
  0.500000000000000     
  0.500000000000000     
  0.500000000000000     
  0.500000000000000     
  0.500000000000000     
  0.500000000000000     
  0.500000000000000     
  0.500000000000000     
  0.500000000000000     
  0.500000000000000     
  0.500000000000000     
  0.500000000000000     
  0.500000000000000     
  0.500000000000000     
  0.500000000000000     
  0.500000000000000     
  0.500000000000000     
  0.500000000000000     
  0.500000000000000     
  0.500000000000000     
  0.500000000000000     
  0.500000000000000     
  0.500000000000000     
  0.500000000000000     
  0.500000000000000     
  0.500000000000000     
  0.500000000000000     
  0.500000000000000     
  0.500000000000000     
  0.500000000000000     
  0.500000000000000     
  0.500000000000000     
  0.500000000000000     
  0.500000000000000     
  0.500000000000000     
  0.500000000000000     
  0.500000000000000     
  0.500000000000000     
  0.500000000000000     
  0.500000000000000     
  0.500000000000000     
  0.500000000000000     
  0.500000000000000     
  0.500000000000000     
  0.500000000000000     
  0.500000000000000     
  0.500000000000000     
  0.500000000000000     
  0.500000000000000     
  0.500000000000000     
  0.500000000000000     
  0.500000000000000     
  0.500000000000000     
  0.500000000000000     
  0.500000000000000     
  0.500000000000000     
  0.500000000000000     
  0.500000000000000     
  0.500000000000000     
  0.500000000000000     
  0.500000000000000     
  0.500000000000000     
  0.500000000000000     
  0.500000000000000     
  0.500000000000000     
  0.500000000000000     
  0.500000000000000     
  0.500000000000000     
  0.500000000000000     
  0.500000000000000     
  0.500000000000000     
  0.500000000000000     
  0.500000000000000     
  0.500000000000000     
  0.500000000000000     
  0.500000000000000     
  0.500000000000000     
  0.500000000000000     
  0.500000000000000     
  0.500000000000000     
  0.500000000000000     
  0.500000000000000     
  0.500000000000000     
  0.500000000000000     
  0.500000000000000     
  0.500000000000000     
  0.500000000000000     
  0.500000000000000     
  0.500000000000000     
  0.500000000000000     
  0.500000000000000     
  0.500000000000000     
  0.500000000000000     
  0.500000000000000     
  0.500000000000000     
  0.500000000000000     
  0.500000000000000     
  0.500000000000000     
  0.500000000000000     
  0.500000000000000     
  0.500000000000000     
  0.500000000000000     
  0.500000000000000     
  0.500000000000000     
  0.500000000000000     
  0.500000000000000     
  0.500000000000000     
  0.500000000000000     
  0.500000000000000     
  0.500000000000000     
  0.500000000000000     
  0.500000000000000     
  0.500000000000000     
  0.500000000000000     
  0.500000000000000     
  0.500000000000000     
  0.500000000000000     
  0.500000000000000     
  0.500000000000000     
  0.500000000000000     
  0.500000000000000     
  0.500000000000000     
  0.500000000000000     
  0.500000000000000     
  0.500000000000000     
  0.500000000000000     
  0.500000000000000     
  0.500000000000000     