# vtk DataFile Version 5.1
Data.vtk
ASCII
DATASET UNSTRUCTURED_GRID
 
POINTS 2000 float
   -0.42  -14.49   -1.22
    3.11  -11.89    0.72
  -10.34   -9.61    2.94
   -6.28  -13.06   -2.10
    0.43  -11.14    6.04
    1.53  -13.13   -9.50
    2.18  -14.34   -8.24
   -9.00   -7.27   -9.49
    2.36  -12.73   -2.70
   -6.15  -11.38   -1.15
   -3.75   -9.68   -2.59
   -1.26  -10.54   -5.97
   -0.36  -13.68   -2.79
   -0.08  -12.90    2.89
   -9.44   -8.50   -0.90
    4.19  -13.88    3.89
   -0.17  -11.22    3.18
   -4.62  -13.23    7.93
   -8.14  -12.00    8.52
   -9.67   -7.64   -6.60
  -10.74   -8.21   -1.46
   -9.61  -10.85    8.62
   -4.18  -10.87   -9.50
  -12.80   -6.64   -9.19
   -1.98  -13.71   -2.02
   -4.59   -9.41   -0.57
   -7.63   -8.96    5.27
   -4.15  -11.26    7.50
   -0.40  -10.53   -0.87
   -0.51  -11.21    7.72
  -11.21   -9.19   -6.56
    5.46  -12.42    0.64
   -7.61  -11.23    9.50
    1.72  -12.89   -1.86
  -12.97   -6.48   -5.83
  -11.00   -9.43    8.57
    4.05  -11.66    5.30
   -7.51   -9.43    3.58
   -1.92  -10.09    1.34
   -0.49  -13.05    0.98
    0.22  -14.50   -3.06
  -10.20  -10.27   -2.51
    0.73  -12.75   -5.33
   -3.69  -13.15   -0.19
    0.51  -10.72   -5.67
    3.81  -13.96    5.09
   -2.37  -14.26    8.54
   -6.89  -11.74   -5.99
    1.88  -12.33    0.44
  -11.30   -9.08   -7.65
   -6.98  -12.71   -9.50
   -5.61   -9.43    7.72
    2.90  -11.22    6.16
   -2.63  -12.05    1.33
    5.71  -12.27    3.60
    1.22  -12.30   -0.32
    5.76  -13.30   -5.34
   -5.93  -10.03    1.28
   -8.82   -9.11    0.44
   -1.28  -13.01   -8.62
   -5.63   -9.37   -0.50
   -5.64   -9.49   -8.45
   -4.25  -12.24    7.68
   -8.41  -11.81    1.78
    1.14  -14.46   -0.12
   -6.78  -10.45    0.70
   -8.07  -11.65   -8.62
    2.29  -12.59    2.81
   -4.95  -13.63   -8.50
   -0.62  -12.72   -2.75
    0.56  -11.13    2.51
   -8.71   -8.01   -7.82
   -2.77  -13.26   -8.04
    3.72  -11.88    2.22
    4.03  -13.92    9.50
   -5.73   -8.56   -6.69
    1.65  -13.58    8.65
   -8.64  -11.63   -6.75
   -3.55  -11.69    1.48
    4.58  -13.76    1.13
  -10.95   -7.85    9.50
    3.10  -14.16    9.20
   -5.81  -12.25   -4.46
    3.24  -14.13   -9.49
   -9.03  -10.16   -7.28
   -1.18  -12.59   -7.21
   -9.14   -8.90    1.37
    6.62  -12.90   -5.85
   -2.66   -9.65    0.17
   -1.40  -12.23    5.62
    2.69  -12.42   -0.15
  -10.90   -7.78   -9.37
    4.18  -12.87   -6.27
    1.47  -11.29    3.99
    0.64  -14.49    9.39
    3.27  -11.98   -2.42
   -8.04  -10.47    2.77
   -7.08   -9.46    4.48
   -3.45  -14.08   -5.57
   -2.21   -9.87   -0.72
   -7.68  -12.26    2.30
    5.76  -12.59   -4.64
    1.45  -11.44    0.15
    4.59  -12.55    6.40
   -4.36  -10.58    1.05
    4.81  -12.72   -9.50
   -3.98  -13.94    5.05
    2.63  -12.13   -4.38
  -11.18   -7.19    7.14
   -8.79  -10.23    3.39
    0.27  -10.85    5.04
   -9.03  -10.29   -1.74
   -0.32  -14.50   -2.22
   -1.33  -13.48   -7.74
   -1.55  -14.42    5.18
    2.07  -13.46   -8.72
   -8.05   -8.20   -0.02
    1.29  -12.19   -4.70
  -10.12  -10.38    7.52
    2.81  -11.97    6.82
   -6.23  -12.00    8.34
    0.38  -11.03    8.44
   -3.87  -10.03    7.02
    3.43  -12.51    2.94
    4.02  -12.46   -1.58
    5.05  -13.27   -3.30
   -4.94  -13.63   -6.07
   -8.79   -9.64    2.57
   -8.51  -10.31   -9.50
  -10.36   -8.61   -9.50
   -4.50  -12.00   -3.97
    0.98  -11.70    1.79
    5.77  -13.30   -2.60
    3.67  -12.44    0.11
   -2.34  -11.02   -7.19
   -6.43  -10.97    8.47
  -13.13   -5.17   -8.75
   -5.25  -12.64   -7.47
   -4.05  -12.27    9.49
   -3.89  -13.97    0.38
    1.95  -12.70   -0.87
  -12.20   -7.73    4.90
   -3.37  -10.92   -5.96
    2.41  -11.96    5.14
   -0.13  -12.04    2.37
  -11.03   -8.32    7.47
   -4.54  -11.24    5.08
   -6.38  -11.91   -9.48
   -7.37  -10.76   -8.88
   -4.90   -8.83   -8.31
    1.71  -13.12    6.56
    1.16  -11.51   -0.93
   -1.99  -11.55    1.91
    1.36  -12.56   -3.76
  -12.32   -4.78   -9.40
   -7.26  -10.59    1.78
   -6.28  -10.75    1.89
    2.46  -14.29    7.49
    0.15  -11.95    6.85
   -2.75  -14.24    7.61
    1.19  -11.32   -5.24
   -0.35  -14.47    9.50
  -12.17   -7.35   -9.50
   -1.29  -14.44    4.20
    1.81  -13.51   -7.76
    0.08  -11.13    0.68
  -11.75   -7.18   -3.88
  -12.80   -6.79   -8.17
    3.20  -14.14   -2.78
   -2.36  -10.94   -6.04
   -2.86  -14.21    1.83
   -0.74  -12.12   -6.34
   -5.59  -11.32    7.91
    0.33  -11.87   -5.09
   -7.58  -10.63    5.50
    1.60  -13.59    2.50
   -7.01   -9.38    9.09
    2.03  -11.88    7.99
   -0.25  -11.21   -3.38
   -6.32  -12.37   -1.10
   -4.73   -9.38   -2.35
    3.21  -14.14    4.04
   -0.55  -14.49    1.97
   -0.06  -12.62   -6.89
   -1.46  -10.84    9.50
    1.48  -14.42   -5.42
   -5.37   -9.76   -3.17
  -12.00   -8.13   -8.16
   -3.84   -9.91    2.97
  -11.25   -9.11   -3.73
   -6.12  -10.42   -1.41
   -5.34  -12.86    6.09
  -13.13   -5.60    9.32
   -4.79   -9.82   -7.99
    1.98  -14.36   -4.32
   -2.10  -14.35    9.50
    3.37  -13.08   -6.81
   -9.27  -11.02   -9.50
  -10.95   -9.33   -1.80
    2.48  -13.40   -0.09
   -2.19  -12.87    4.88
   -9.80   -9.45    9.50
   -0.62  -13.74   -8.40
   -7.66  -11.23   -1.43
   -0.83  -13.71    4.84
   -9.88   -7.91   -8.98
    3.48  -14.06   -5.16
    3.23  -11.60    4.68
    4.18  -13.13   -8.82
   -3.62   -9.97   -6.17
   -0.15  -12.17    5.34
   -8.46   -9.31   -9.45
    2.95  -13.30    5.16
   -5.78  -13.30   -8.05
    4.76  -13.70   -6.93
    2.14  -13.01    1.70
    3.29  -13.16    0.72
  -12.90   -6.56    9.48
   -2.06  -10.12   -7.53
   -6.35   -9.14   -4.44
   -1.13  -12.75    4.81
    0.64  -13.87    7.66
   -6.68   -8.95   -3.41
   -5.74  -11.13   -2.03
   -9.30   -8.84    8.67
   -7.60   -8.58    8.96
   -4.73  -10.26   -6.07
   -6.11  -13.13   -3.91
   -1.47  -10.63    5.53
   -3.69  -10.12   -8.75
  -12.24   -7.77   -5.62
   -2.45  -14.29    5.97
   -5.13  -11.41   -7.58
   -2.06  -11.22    6.43
   -4.21   -9.16   -6.26
   -7.12   -9.53   -1.48
   -3.66  -10.73   -0.86
    2.30  -14.32    1.54
   -0.97  -13.76    3.55
   -6.92   -9.82   -6.14
   -1.81  -10.19    2.89
   -5.77  -13.30    7.47
   -2.81   -9.52   -7.00
   -6.57  -10.24   -8.39
    4.32  -13.84    5.94
   -7.11   -8.56    0.52
    2.37  -12.55   -7.23
    6.07  -13.17    3.11
   -5.61  -10.27    9.50
   -7.69   -8.81    7.99
   -8.59  -10.42   -2.65
    2.25  -11.96   -6.43
    0.68  -11.77   -8.11
  -12.22   -7.56    7.47
   -7.49  -12.42    9.32
   -4.00  -13.94    3.65
   -9.33   -8.77   -9.50
   -6.66  -12.84    6.66
   -2.62  -10.61   -5.05
    2.68  -11.67   -1.49
   -3.13  -11.88   -9.21
    1.35  -13.50   -5.07
   -1.73  -10.40    3.88
    3.59  -12.53    7.12
   -5.28   -8.79   -4.50
   -9.20  -11.21   -5.94
   -5.59  -13.36    3.08
    3.87  -12.34    4.50
   -4.15  -10.77   -6.89
    3.23  -12.09   -6.83
   -2.77  -10.77   -0.33
   -6.27  -12.24    0.73
   -8.29   -8.90   -8.01
   -6.53  -12.90   -8.58
   -0.37  -13.41   -7.47
   -8.91   -8.04    6.75
    1.34  -13.64    5.77
   -3.10  -14.17    9.50
    3.56  -14.06   -8.49
   -8.31   -9.98    0.40
   -8.54   -9.72    6.50
  -11.15   -9.26    7.18
    2.52  -14.28   -6.75
   -5.69  -11.27    9.44
   -4.66  -10.74   -0.89
    4.52  -12.91    8.15
   -4.99  -11.80   -2.00
   -1.91  -12.71    7.41
    3.12  -13.16   -8.61
   -2.53  -14.28    4.96
  -11.44   -8.11    1.58
    2.32  -14.31    8.59
   -1.35  -11.27   -1.53
    1.20  -13.60   -6.97
   -2.08  -11.67    9.50
    1.71  -11.91   -1.68
   -9.00  -11.37   -8.36
    1.21  -12.35    5.40
   -4.61  -12.94    6.84
  -12.36   -7.59   -6.83
   -7.09  -12.65   -1.67
   -3.96  -13.95    8.23
   -3.77  -11.52    2.45
    4.72  -12.69   -4.19
    0.63  -14.48   -1.22
   -8.90  -11.43    8.22
    0.75  -12.90    6.10
  -11.34   -7.51   -7.36
    2.18  -11.02   -2.08
    1.12  -13.54    9.50
    0.25  -13.89   -6.60
   -1.69  -11.93    4.65
    6.55  -12.93    0.16
   -0.40  -11.46   -1.28
   -3.03  -13.25   -9.41
   -5.00  -13.61   -7.50
   -6.74  -10.28   -9.50
    1.51  -13.82   -0.80
   -9.43   -9.09    3.21
   -3.58   -9.84   -5.03
   -8.75   -7.99   -8.84
    4.22  -13.87   -9.49
  -11.85   -8.35   -3.38
  -10.80   -9.66   -3.02
    5.70  -12.54   -1.96
    4.42  -12.47    0.97
    2.54  -11.08    0.85
   -5.53  -13.40    9.50
   -8.08  -10.01   -6.42
    0.02  -13.75    3.41
    4.24  -13.87   -0.44
   -2.39  -14.30   -2.71
  -11.29   -9.03    3.02
   -6.29  -10.69   -3.32
   -8.63   -8.46    7.91
   -1.37   -9.93   -1.93
    0.51  -12.30    9.50
   -4.57   -9.51    4.30
   -8.60   -9.16   -0.53
    3.02  -13.74   -1.88
    3.92  -13.60   -3.27
   -8.30  -10.01   -7.96
   -7.58  -12.36    6.65
   -5.27  -10.25    4.59
   -3.62   -9.21   -9.17
   -0.54  -11.21   -8.19
    5.07  -13.18    5.73
    3.04  -11.69   -3.39
   -2.61  -12.50   -6.29
   -4.57   -9.85    5.25
   -2.87  -10.43   -2.44
   -5.91   -9.71   -9.50
   -7.91   -8.58   -2.84
    1.01  -11.74    3.18
   -4.03  -13.21   -6.44
    3.46  -14.08    6.74
    0.35  -14.50   -9.50
  -12.52   -5.85    7.42
    2.33  -13.56    5.90
   -1.38  -10.77   -3.62
  -11.85   -6.49    6.90
  -10.41   -8.64    8.36
    5.57  -13.39   -6.35
   -5.02  -12.01    9.50
   -7.84  -12.20    4.09
    0.78  -10.72    0.01
    0.91  -11.95    4.51
  -13.34   -5.68   -7.53
    1.81  -14.39   -2.61
    1.77  -13.57    7.46
   -3.10  -13.19   -7.10
   -2.05  -13.41   -9.50
   -4.03  -13.93   -7.84
   -2.85   -9.59    8.30
    3.50  -11.63   -4.31
   -7.18   -8.99    1.92
   -8.45  -11.79    9.50
    5.07  -13.18    3.16
   -4.06  -10.78   -2.79
    1.26  -14.09   -9.42
  -11.28   -7.52   -8.48
    2.38  -12.86   -3.73
   -7.48   -8.89   -4.00
   -1.91  -12.79    6.41
    1.98  -11.89   -5.46
   -2.20  -11.61   -9.47
    4.92  -13.64   -1.14
   -3.08  -14.14    3.31
   -6.88   -8.82   -6.07
   -4.86  -13.66   -9.50
   -5.88   -9.10    8.62
   -4.07  -13.92    9.50
    3.47  -12.77   -7.76
   -3.46  -13.12    9.50
    2.84  -12.51    7.78
   -5.92  -13.24    5.37
[...]
POINT_DATA 2000
SCALARS radius float
LOOKUP_TABLE default
  0.500000000000000     
  0.500000000000000     
  0.500000000000000     
  0.500000000000000     
  0.500000000000000     
  0.500000000000000     
  0.500000000000000     
  0.500000000000000     
  0.500000000000000     
  0.500000000000000     
  0.500000000000000     
  0.500000000000000     
  0.500000000000000     
  0.500000000000000     
  0.500000000000000     
  0.500000000000000     
  0.500000000000000     
  0.500000000000000     
  0.500000000000000     
  0.500000000000000     
  0.500000000000000     
  0.500000000000000     
  0.500000000000000     
  0.500000000000000     
  0.500000000000000     
  0.500000000000000     
  0.500000000000000     
  0.500000000000000     
  0.500000000000000     
  0.500000000000000     
  0.500000000000000     
  0.500000000000000     
  0.500000000000000     
  0.500000000000000     
  0.500000000000000     
  0.500000000000000     
  0.500000000000000     
  0.500000000000000     
  0.500000000000000     
  0.500000000000000     
  0.500000000000000     
  0.500000000000000     
  0.500000000000000     
  0.500000000000000     
  0.500000000000000     
  0.500000000000000     
  0.500000000000000     
  0.500000000000000     
  0.500000000000000     
  0.500000000000000     
  0.500000000000000     
  0.500000000000000     
  0.500000000000000     
  0.500000000000000     
  0.500000000000000     
  0.500000000000000     
  0.500000000000000     
  0.500000000000000     
  0.500000000000000     
  0.500000000000000     
  0.500000000000000     
  0.500000000000000     
  0.500000000000000     
  0.500000000000000     
  0.500000000000000     
  0.500000000000000     
  0.500000000000000     
  0.500000000000000     
  0.500000000000000     
  0.500000000000000     
  0.500000000000000     
  0.500000000000000     
  0.500000000000000     
  0.500000000000000     
  0.500000000000000     
  0.500000000000000     
  0.500000000000000     
  0.500000000000000     
  0.500000000000000     
  0.500000000000000     
  0.500000000000000     
  0.500000000000000     
  0.500000000000000     
  0.500000000000000     
  0.500000000000000     
  0.500000000000000     
  0.500000000000000     
  0.500000000000000     
  0.500000000000000     
  0.500000000000000     
  0.500000000000000     
  0.500000000000000     
  0.500000000000000     
  0.500000000000000     
  0.500000000000000     
  0.500000000000000     
  0.500000000000000     
  0.500000000000000     
  0.500000000000000     
  0.500000000000000     
  0.500000000000000     
  0.500000000000000     
  0.500000000000000     
  0.500000000000000     
  0.500000000000000     
  0.500000000000000     
  0.500000000000000     
  0.500000000000000     
  0.500000000000000     
  0.500000000000000     
  0.500000000000000     
  0.500000000000000     
  0.500000000000000     
  0.500000000000000     
  0.500000000000000     
  0.500000000000000     
  0.500000000000000     
  0.500000000000000     
  0.500000000000000     
  0.500000000000000     
  0.500000000000000     
  0.500000000000000     
  0.500000000000000     
  0.500000000000000     
  0.500000000000000     
  0.500000000000000     
  0.500000000000000     
  0.500000000000000     
  0.500000000000000     
  0.500000000000000     
  0.500000000000000     
  0.500000000000000     
  0.500000000000000     
  0.500000000000000     
  0.500000000000000     
  0.500000000000000     
  0.500000000000000     
  0.500000000000000     
  0.500000000000000     
  0.500000000000000     
  0.500000000000000     
  0.500000000000000     
  0.500000000000000     
  0.500000000000000     
  0.500000000000000     
  0.500000000000000     
  0.500000000000000     
  0.500000000000000     
  0.500000000000000     
  0.500000000000000     
  0.500000000000000     
  0.500000000000000     
  0.500000000000000     
  0.500000000000000     
  0.500000000000000     
  0.500000000000000     
  0.500000000000000     
  0.500000000000000     
  0.500000000000000     
  0.500000000000000     
  0.500000000000000     
  0.500000000000000     
  0.500000000000000     
  0.500000000000000     
  0.500000000000000     
  0.500000000000000     
  0.500000000000000     
  0.500000000000000     
  0.500000000000000     
  0.500000000000000     
  0.500000000000000     
  0.500000000000000     
  0.500000000000000     
  0.500000000000000     
  0.500000000000000     
  0.500000000000000     
  0.500000000000000     
  0.500000000000000     
  0.500000000000000     
  0.500000000000000     
  0.500000000000000     
  0.500000000000000     
  0.500000000000000     
  0.500000000000000     
  0.500000000000000     
  0.500000000000000     
  0.500000000000000     
  0.500000000000000     
  0.500000000000000     
  0.500000000000000     
  0.500000000000000     
  0.500000000000000     
  0.500000000000000     
  0.500000000000000     
  0.500000000000000     
  0.500000000000000     
  0.500000000000000     
  0.500000000000000     
  0.500000000000000     
  0.500000000000000     
  0.500000000000000     
  0.500000000000000     
  0.500000000000000     
  0.500000000000000     
  0.500000000000000     
  0.500000000000000     
  0.500000000000000     
  0.500000000000000     
  0.500000000000000     
  0.500000000000000     
  0.500000000000000     
  0.500000000000000     
  0.500000000000000     
  0.500000000000000     
  0.500000000000000     
  0.500000000000000     
  0.500000000000000     
  0.500000000000000     
  0.500000000000000     
  0.500000000000000     
  0.500000000000000     
  0.500000000000000     
  0.500000000000000     
  0.500000000000000     
  0.500000000000000     
  0.500000000000000     
  0.500000000000000     
  0.500000000000000     
  0.500000000000000     
  0.500000000000000     
  0.500000000000000     
  0.500000000000000     
  0.500000000000000     
  0.500000000000000     
  0.500000000000000     
  0.500000000000000     
  0.500000000000000     
  0.500000000000000     
  0.500000000000000     
  0.500000000000000     
  0.500000000000000     
  0.500000000000000     
  0.500000000000000     
  0.500000000000000     
  0.500000000000000     
  0.500000000000000     
  0.500000000000000     
  0.500000000000000     
  0.500000000000000     
  0.500000000000000     
  0.500000000000000     
  0.500000000000000     
  0.500000000000000     
  0.500000000000000     
  0.500000000000000     
  0.500000000000000     
  0.500000000000000     
  0.500000000000000     
  0.500000000000000     
  0.500000000000000     
  0.500000000000000     
  0.500000000000000     
  0.500000000000000     
  0.500000000000000     
  0.500000000000000     
  0.500000000000000     
  0.500000000000000     
  0.500000000000000     
  0.500000000000000     
  0.500000000000000     
  0.500000000000000     
  0.500000000000000     
  0.500000000000000     
  0.500000000000000     
  0.500000000000000     
  0.500000000000000     
  0.500000000000000     
  0.500000000000000     
  0.500000000000000     
  0.500000000000000     
  0.500000000000000     
  0.500000000000000     
  0.500000000000000     
  0.500000000000000     
  0.500000000000000     
  0.500000000000000     
  0.500000000000000     
  0.500000000000000     
  0.500000000000000     
  0.500000000000000     
  0.500000000000000     
  0.500000000000000     
  0.500000000000000     
  0.500000000000000     
  0.500000000000000     
  0.500000000000000     
  0.500000000000000     
  0.500000000000000     
  0.500000000000000     
  0.500000000000000     
  0.500000000000000     
  0.500000000000000     
  0.500000000000000     
  0.500000000000000     
  0.500000000000000     
  0.500000000000000     
  0.500000000000000     
  0.500000000000000     
  0.500000000000000     
  0.500000000000000     
  0.500000000000000     
  0.500000000000000     
  0.500000000000000     
  0.500000000000000     
  0.500000000000000     
  0.500000000000000     
  0.500000000000000     
  0.500000000000000     
  0.500000000000000     
  0.500000000000000     
  0.500000000000000     
  0.500000000000000     
  0.500000000000000     
  0.500000000000000     
  0.500000000000000     
  0.500000000000000     
  0.500000000000000     
  0.500000000000000     
  0.500000000000000     
  0.500000000000000     
  0.500000000000000     
  0.500000000000000     
  0.500000000000000     
  0.500000000000000     
  0.500000000000000     
  0.500000000000000     
  0.500000000000000     
  0.500000000000000     
  0.500000000000000     
  0.500000000000000     
  0.500000000000000     
  0.500000000000000     
  0.500000000000000     
  0.500000000000000     
  0.500000000000000     
  0.500000000000000     
  0.500000000000000     
  0.500000000000000     
  0.500000000000000     
  0.500000000000000     
  0.500000000000000     
  0.500000000000000     
  0.500000000000000     
  0.500000000000000     
  0.500000000000000     
  0.500000000000000     
  0.500000000000000     
  0.500000000000000     
  0.500000000000000     
  0.500000000000000     
  0.500000000000000     
  0.500000000000000     
  0.500000000000000     
  0.500000000000000     
  0.500000000000000     
  0.500000000000000     
  0.500000000000000     
  0.500000000000000     
  0.500000000000000     
  0.500000000000000     
  0.500000000000000     
  0.500000000000000     
  0.500000000000000     
  0.500000000000000     
  0.500000000000000     
  0.500000000000000     
  0.500000000000000     
  0.500000000000000     
  0.500000000000000     
  0.500000000000000     
  0.500000000000000     
  0.500000000000000     
  0.500000000000000     
  0.500000000000000     
  0.500000000000000     
  0.500000000000000     
  0.500000000000000     
  0.500000000000000     
  0.500000000000000     
  0.500000000000000     
  0.500000000000000     
  0.500000000000000     
  0.500000000000000     
  0.500000000000000     
  0.500000000000000     
  0.500000000000000     
  0.500000000000000     
  0.500000000000000     
  0.500000000000000     
  0.500000000000000     
  0.500000000000000     
  0.500000000000000     
  0.500000000000000     
  0.500000000000000     
  0.500000000000000     
  0.500000000000000     
  0.500000000000000     
  0.500000000000000     
  0.500000000000000     
  0.500000000000000     
  0.500000000000000     
  0.500000000000000     
  0.500000000000000     
  0.500000000000000     
  0.500000000000000     
  0.500000000000000     
  0.500000000000000     
  0.500000000000000     
  0.500000000000000     
  0.500000000000000     
  0.500000000000000     
  0.500000000000000     
  0.500000000000000     
  0.500000000000000     
  0.500000000000000     
  0.500000000000000     
  0.500000000000000     
  0.500000000000000     
  0.500000000000000     
  0.500000000000000     
  0.500000000000000     
  0.500000000000000     
  0.500000000000000     
  0.500000000000000     
  0.500000000000000     
  0.500000000000000     
  0.500000000000000     
  0.500000000000000     
  0.500000000000000     
  0.500000000000000     
  0.500000000000000     
  0.500000000000000     
  0.500000000000000     
  0.500000000000000     
  0.500000000000000     
  0.500000000000000     
  0.500000000000000     
  0.500000000000000     
  0.500000000000000     
  0.500000000000000     
  0.500000000000000     
  0.500000000000000     
  0.500000000000000     
  0.500000000000000     
  0.500000000000000     
  0.500000000000000     
  0.500000000000000     
  0.500000000000000     
  0.500000000000000     
  0.500000000000000     
  0.500000000000000     
  0.500000000000000     
  0.500000000000000     
  0.500000000000000     
  0.500000000000000     
  0.500000000000000     
  0.500000000000000     
  0.500000000000000     
  0.500000000000000     
  0.500000000000000     
  0.500000000000000     
  0.500000000000000     
  0.500000000000000     
  0.500000000000000     
  0.500000000000000     
  0.500000000000000     
  0.500000000000000     
  0.500000000000000     
  0.500000000000000     
  0.500000000000000     
  0.500000000000000     
  0.500000000000000     
  0.500000000000000     
  0.500000000000000     
  0.500000000000000     
  0.500000000000000     
  0.500000000000000     
  0.500000000000000     
  0.500000000000000     
  0.500000000000000     
  0.500000000000000     
  0.500000000000000     
  0.500000000000000     
  0.500000000000000     
  0.500000000000000     
  0.500000000000000     
  0.500000000000000     
  0.500000000000000     
  0.500000000000000     
  0.500000000000000     
  0.500000000000000     
  0.500000000000000     
  0.500000000000000     
  0.500000000000000     
  0.500000000000000     
  0.500000000000000     
  0.500000000000000     
  0.500000000000000     
  0.500000000000000     
  0.500000000000000     
  0.500000000000000     
  0.500000000000000     
  0.500000000000000     
  0.500000000000000     
  0.500000000000000     
  0.500000000000000     
  0.500000000000000     
  0.500000000000000     
  0.500000000000000     
  0.500000000000000     
  0.500000000000000     
  0.500000000000000     
  0.500000000000000     
  0.500000000000000     
  0.500000000000000     
  0.500000000000000     
  0.500000000000000     
  0.500000000000000     
  0.500000000000000     
  0.500000000000000     
  0.500000000000000     
  0.500000000000000     
  0.500000000000000     
  0.500000000000000     
  0.500000000000000     
  0.500000000000000     
  0.500000000000000     
  0.500000000000000     
  0.500000000000000     
  0.500000000000000     
  0.500000000000000     
  0.500000000000000     
  0.500000000000000     
  0.500000000000000     
  0.500000000000000     
  0.500000000000000     
  0.500000000000000     
  0.500000000000000     
  0.500000000000000     
  0.500000000000000     
  0.500000000000000     
  0.500000000000000     
  0.500000000000000     
  0.500000000000000     
  0.500000000000000     
  0.500000000000000     
  0.500000000000000     
  0.500000000000000     
  0.500000000000000     
  0.500000000000000     
  0.500000000000000     
  0.500000000000000     
  0.500000000000000     
  0.500000000000000     
  0.500000000000000     
  0.500000000000000     
  0.500000000000000     
  0.500000000000000     
  0.500000000000000     
  0.500000000000000     
  0.500000000000000     
  0.500000000000000     
  0.500000000000000     
  0.500000000000000     
  0.500000000000000     
  0.500000000000000     
  0.500000000000000     
  0.500000000000000     
  0.500000000000000     
  0.500000000000000     
  0.500000000000000     
  0.500000000000000     
  0.500000000000000     
  0.500000000000000     
  0.500000000000000     
  0.500000000000000     
  0.500000000000000     
  0.500000000000000     
  0.500000000000000     
  0.500000000000000     
  0.500000000000000     
  0.500000000000000     
  0.500000000000000     
  0.500000000000000     
  0.500000000000000     
  0.500000000000000     
  0.500000000000000     
  0.500000000000000     
  0.500000000000000     
  0.500000000000000     
  0.500000000000000     
  0.500000000000000     
  0.500000000000000     
  0.500000000000000     
  0.500000000000000     
  0.500000000000000     
  0.500000000000000     
  0.500000000000000     
  0.500000000000000     
  0.500000000000000     
  0.500000000000000     
  0.500000000000000     
  0.500000000000000     
  0.500000000000000     
  0.500000000000000     
  0.500000000000000     
  0.500000000000000     
  0.500000000000000     
  0.500000000000000     
  0.500000000000000     
  0.500000000000000     
  0.500000000000000     
  0.500000000000000     
  0.500000000000000     
  0.500000000000000     
  0.500000000000000     
  0.500000000000000     
  0.500000000000000     
  0.500000000000000     
  0.500000000000000     
  0.500000000000000     
  0.500000000000000     
  0.500000000000000     
  0.500000000000000     
  0.500000000000000     
  0.500000000000000     
  0.500000000000000     
  0.500000000000000     
  0.500000000000000     
  0.500000000000000     
  0.500000000000000     
  0.500000000000000     
  0.500000000000000     
  0.500000000000000     
  0.500000000000000     
  0.500000000000000     
  0.500000000000000     
  0.500000000000000     
  0.500000000000000     
  0.500000000000000     
  0.500000000000000     
  0.500000000000000     
  0.500000000000000     
  0.500000000000000     
  0.500000000000000     
  0.500000000000000     
  0.500000000000000     
  0.500000000000000     
  0.500000000000000     
  0.500000000000000     
  0.500000000000000     
  0.500000000000000     
  0.500000000000000     
  0.500000000000000     
  0.500000000000000     
  0.500000000000000     
  0.500000000000000     
  0.500000000000000     
  0.500000000000000     
  0.500000000000000     
  0.500000000000000     
  0.500000000000000     
  0.500000000000000     
  0.500000000000000     
  0.500000000000000     
  0.500000000000000     
  0.500000000000000     
  0.500000000000000     
  0.500000000000000     
  0.500000000000000     
  0.500000000000000     
  0.500000000000000     
  0.500000000000000     
  0.500000000000000     
  0.500000000000000     
  0.500000000000000     
  0.500000000000000     
  0.500000000000000     
  0.500000000000000     
  0.500000000000000     
  0.500000000000000     
  0.500000000000000     
  0.500000000000000     
  0.500000000000000     
  0.500000000000000     
  0.500000000000000     
  0.500000000000000     
  0.500000000000000     
  0.500000000000000     
  0.500000000000000     
  0.500000000000000     
  0.500000000000000     
  0.500000000000000     
  0.500000000000000     
  0.500000000000000     
  0.500000000000000     
  0.500000000000000     
  0.500000000000000     
  0.500000000000000     
  0.500000000000000     
  0.500000000000000     
  0.500000000000000     
  0.500000000000000     
  0.500000000000000     
  0.500000000000000     
  0.500000000000000     
  0.500000000000000     
  0.500000000000000     
  0.500000000000000     
  0.500000000000000     
  0.500000000000000     
  0.500000000000000     
  0.500000000000000     
  0.500000000000000     
  0.500000000000000     
  0.500000000000000     
  0.500000000000000     
  0.500000000000000     
  0.500000000000000     
  0.500000000000000     
  0.500000000000000     
  0.500000000000000     
  0.500000000000000     
  0.500000000000000     
  0.500000000000000     
  0.500000000000000     
  0.500000000000000     
  0.500000000000000     
  0.500000000000000     
  0.500000000000000     
  0.500000000000000     
  0.500000000000000     
  0.500000000000000     
  0.500000000000000     
  0.500000000000000     
  0.500000000000000     
  0.500000000000000     
  0.500000000000000     
  0.500000000000000     
  0.500000000000000     
  0.500000000000000     
  0.500000000000000     
  0.500000000000000     
  0.500000000000000     
  0.500000000000000     
  0.500000000000000     
  0.500000000000000     
  0.500000000000000     
  0.500000000000000     
  0.500000000000000     
  0.500000000000000     
  0.500000000000000     
  0.500000000000000     
  0.500000000000000     
  0.500000000000000     
  0.500000000000000     
  0.500000000000000     
  0.500000000000000     
  0.500000000000000     
  0.500000000000000     
  0.500000000000000     
  0.500000000000000     
  0.500000000000000     
  0.500000000000000     
  0.500000000000000     
  0.500000000000000     
  0.500000000000000     
  0.500000000000000     
  0.500000000000000     
  0.500000000000000     
  0.500000000000000     
  0.500000000000000     
  0.500000000000000     
  0.500000000000000     
  0.500000000000000     
  0.500000000000000     
  0.500000000000000     
  0.500000000000000     
  0.500000000000000     
  0.500000000000000     
  0.500000000000000     
  0.500000000000000     
  0.500000000000000     
  0.500000000000000     
  0.500000000000000     
  0.500000000000000     
  0.500000000000000     