# vtk DataFile Version 5.1
Data.vtk
ASCII
DATASET UNSTRUCTURED_GRID
 
POINTS 2000 float
    0.13    0.21    5.22
   11.82    5.71    7.70
   -1.34  -14.44    6.79
    2.32   -2.72   -7.85
  -11.41   -2.92    8.64
    0.14  -13.57   -9.14
    0.96   13.64   -9.46
   -2.99  -11.43   -9.12
   -0.55   10.94   -7.41
   12.46   -7.28    3.24
    0.16    1.60    5.29
    0.47  -14.35   -8.59
    0.33    2.96    5.37
   -1.80  -13.59    5.83
   10.07   -1.37   -5.05
   12.24   -2.02    8.30
    1.78   11.77    8.41
    2.34  -13.20    7.77
   14.30   -1.99    9.35
    1.47  -13.19   -5.52
   -0.88  -14.46   -2.55
   13.07   -6.28    8.55
   -4.33    3.42   -9.39
   10.32  -10.19   -8.16
   11.75   -8.45    5.32
  -11.84   -2.57   -9.21
    3.69  -14.02    9.50
    3.36   -8.68    9.27
  -11.36    3.55    8.86
  -10.70   -9.79    7.03
    1.37  -14.05   -5.01
   11.96   -1.93    5.19
   -1.63    9.95    5.25
    5.94   -9.78   -4.32
   -7.95  -11.84   -7.12
    6.78  -11.09    8.75
    3.57   -6.55    8.98
   -3.35   -8.38    9.19
   -5.86    8.50    8.27
    0.83  -12.01    5.75
    1.26   12.24    7.21
   -8.68  -11.61   -1.86
  -10.68    6.75   -9.49
    2.74  -10.90    4.13
  -13.98   -2.13   -9.26
   -5.86   11.15    9.48
    8.65    3.15    8.84
    1.59    7.04   -7.11
    9.68    8.90    9.49
    2.99  -11.45   -9.40
    7.71  -10.52   -8.65
  -12.16   -6.39    9.45
   -1.33    4.97    9.43
   12.54   -3.73    6.98
   -9.40    0.64    5.87
   13.65   -4.90    5.00
   -2.83   -1.11   -8.45
   -8.15   -6.52    8.36
   -6.91    9.95   -5.69
  -12.87   -1.37   -7.17
  -10.06    6.76   -0.52
  -11.45    4.91    8.68
    7.58    1.97    9.49
   11.91   -8.27    6.96
   12.41   -7.32    5.79
    4.38   -4.82    4.80
    3.60   -6.46   -0.96
   11.96   -4.36    7.62
    5.71  -13.33    0.15
    2.38   -1.60   -9.01
  -12.81   -6.80    2.95
    7.60  -11.91   -8.26
   -2.27  -12.90   -7.52
    3.76    8.62    8.53
   11.92    0.78    9.50
   -4.12  -13.36   -7.35
    3.56   12.10    9.49
   -6.53    7.25   -9.48
    9.66   -0.98    8.40
    2.09    9.67    3.09
    2.54   12.84    9.49
   11.47   -1.92    9.14
   12.44   -7.46    0.31
   -2.67    5.34    7.58
    7.13  -12.63   -8.78
    8.09   -5.48   -8.58
   -8.85  -11.48    0.78
   12.52   -5.57   -1.79
    2.84    3.17    7.79
    7.60   10.72    9.48
   -1.13  -13.57    0.44
    3.95   -8.22   -9.17
  -13.52   -2.27   -3.37
   -6.81  -11.71    7.81
   11.67   -8.60    7.87
    0.76   11.14    7.66
    9.49   -6.29    7.21
   -5.93  -11.56    7.04
    4.08    5.29   -0.53
  -12.25    5.97   -8.03
   -4.67  -13.73    6.05
   14.27   -0.70   -8.55
   -0.58    6.82    9.49
   -0.11   12.85    8.63
  -10.65   -7.55    8.35
   -0.13    9.87   -8.81
   -4.81  -12.48    8.77
    6.38   -7.23   -8.24
   -2.11  -14.35    7.49
    9.53   -7.26    7.48
  -12.78   -6.52    8.63
   11.64   -8.64    0.35
   11.25    5.48   -6.50
   -3.06    9.88   -9.02
   13.23   -5.83    7.22
    9.75    1.31   -9.44
   -6.15   -5.13   -6.40
   -7.28   -3.33   -8.42
   12.10   -7.96    8.50
   -3.78  -14.00    9.44
    7.51    8.91    9.49
   -8.77  -11.54    8.21
    9.60   -3.95    8.41
    1.50    8.50    8.60
  -12.08    2.09    2.59
   -5.18    8.10   -7.56
    9.12    2.94   -9.49
    3.12  -12.22    1.95
    7.83    9.60   -9.10
    2.72   12.18   -9.48
    2.96  -13.09   -4.65
    9.57   -0.51    7.48
   -1.83  -11.32    8.12
    2.51   11.94    5.86
  -11.52   -8.81   -9.48
   -5.66  -11.34    9.35
    3.89  -13.62   -7.06
    5.43  -13.44   -5.86
   -5.54  -10.30    9.40
    9.08  -11.31    7.43
    8.48  -10.45   -5.06
   -0.96  -14.47    2.20
   -3.65    0.01   -6.24
   -7.78  -11.62    8.08
   -3.39  -12.49    7.50
    2.01  -13.63    8.62
    0.66  -13.62    7.56
   -4.99    0.05   -7.97
    4.41  -13.19   -8.11
    0.93  -11.79   -9.50
   11.64   -6.72    8.05
  -10.42    0.42    5.85
    2.65    1.11    8.22
   13.61   -2.55    3.87
   -3.96  -10.53   -7.45
   -7.75  -11.78    5.11
   -4.60  -12.46    6.28
  -10.68    4.02    9.48
   -5.67  -13.33    9.19
    8.23    8.96    8.70
   -0.47   -6.44   -7.59
    2.13   13.17    7.25
    8.33   -9.94   -9.41
   14.44   -1.35    4.57
   -3.87    7.12   -9.26
   12.67    1.93    8.57
    0.10  -14.31   -2.16
   10.01   -9.52   -9.46
   12.50   -5.16    7.33
   -7.41   -3.52   -9.50
   14.23   -2.80    1.65
  -12.20   -3.66   -9.43
    0.41    6.92    9.15
   -9.55   -6.95   -8.93
   -4.71    5.45    9.30
   13.65   -1.97    4.77
    2.78   -5.37    9.43
  -13.04   -5.72    9.36
   -0.63    3.19    5.66
    6.46   -5.42    6.78
    3.01  -13.94   -6.46
   10.88   -0.23    7.46
   11.99    3.05    3.53
    2.00   -9.91   -9.17
    8.16   -9.73    9.33
   14.01   -1.77   -7.77
   -6.72    4.23    5.63
    1.87  -14.38   -7.51
   -5.10  -13.56    8.40
   -4.01  -12.22   -2.25
    8.87   -8.76   -2.41
   -1.28  -14.01    8.46
   13.43   -2.49    9.41
    3.15  -13.82   -9.50
   -4.07    1.64   -8.56
   10.23   -6.00    8.92
   -7.74  -10.63   -9.50
    1.70  -12.15   -8.84
   -9.06  -10.21    2.75
   14.01    2.48   -8.13
    5.70    5.88    9.50
   -0.89   11.14    9.38
   13.09   -6.24   -4.74
   10.84   -0.79   -0.89
   -6.01  -13.16    3.67
   -8.78  -11.54   -6.64
    8.83    3.27   -4.42
    2.15  -11.96    9.04
   14.28    0.64   -8.29
    3.42    2.99   -9.50
  -10.86    2.23    8.68
   -4.09   -9.69   -9.48
    2.99    9.31    8.64
    0.39   -5.97   -4.88
  -11.35    5.37   -7.05
   10.60    3.38    9.19
    8.35    7.54    8.12
   -4.85    3.18    7.02
  -14.21   -2.91   -7.06
   -9.33  -11.10   -2.73
   -3.42    7.34    9.45
   13.23   -4.79    9.17
   -8.98  -11.39   -8.90
    1.72    7.02    7.25
   11.92   -6.39    9.28
  -10.47    4.56    7.05
  -14.34   -2.00   -6.67
   14.41   -1.59   -5.64
   -7.82  -10.02    9.50
   -6.19   10.30   -9.50
   -4.60  -13.75   -6.56
    9.21   -5.30    9.46
    3.48  -10.93   -7.36
   -3.46    7.77    5.09
   -2.40  -12.14   -8.73
   -9.98  -10.36   -2.88
  -13.73   -2.40    9.36
    4.36    7.96    2.28
    3.22  -11.89    7.12
   -6.18  -10.30   -9.26
    9.81   -5.55    8.13
  -11.44    0.31    9.49
   -1.11   -7.75   -8.61
    9.12    6.35   -4.57
    5.47    5.77    8.50
   -6.36  -11.89    5.20
   -4.68    9.52   -7.16
   10.22    7.74   -0.38
   -9.64  -10.56    9.49
    5.99   -1.38    9.48
    4.36    4.46    8.53
   -2.13  -14.34   -9.50
   -4.93   -3.99   -9.47
    5.66  -13.27    7.70
    6.80    9.03   -4.01
    8.36   -9.01    8.67
   -3.39  -12.51   -9.50
    9.36  -11.05    6.23
   -1.84   -0.08   -8.74
    5.59    1.93    3.22
   13.95    3.95   -8.85
   -9.67   -0.37   -5.69
  -13.64    1.15    8.28
   -9.38   -6.83    9.24
   -8.61  -11.53   -7.92
    7.06  -12.66   -6.71
   11.27   -9.12    7.09
  -13.30   -2.65    8.40
    2.46  -12.30   -9.47
   -7.82   -5.62   -8.59
   10.19   -6.39   -4.32
    9.03   -5.09    7.68
   12.38   -3.78   -9.43
   11.32    8.16   -3.73
   -5.69    9.72   -6.61
    5.69  -11.30    9.18
   12.02   -3.38    7.83
    4.49    9.07    9.50
    8.82   -8.44   -9.26
  -11.91   -8.28   -1.07
   -6.10  -11.84    8.52
   12.86   -6.70    9.46
    8.12   -5.02   -6.88
   -7.31   -6.43    9.37
  -11.82   -8.39    6.60
    6.27    7.89    8.37
   10.42   -7.65    7.22
   11.11   -5.86    9.50
   11.02   -0.52   -7.27
   10.13    2.52    9.50
   -5.37   -9.83    7.60
  -13.49   -4.76    9.50
   -7.20    1.99    4.88
   10.65   -4.03   -8.56
    9.50    5.28    8.70
    3.47  -11.77    3.96
    5.86  -13.26   -7.76
   10.71   -4.07    9.05
    4.74  -13.36    7.29
    3.81  -13.99   -8.04
    1.50   -4.17    5.93
    8.34  -11.86    8.63
   10.50   -0.47    8.95
   10.91    0.39    8.65
   13.58    3.94    8.39
    5.18    3.67    8.88
   12.08   -3.21    9.50
    8.47  -11.77   -7.61
    4.64   -8.46   -5.94
  -10.57   -9.07    9.48
    5.54   -7.18   -9.31
   11.98   -5.18    8.20
    9.12    7.64   -0.57
  -12.39    6.29    9.07
   -6.83   -4.38   -9.42
   12.81    2.37   -9.07
    5.01   -6.01   -9.50
   14.49   -0.43   -7.06
  -11.26   -7.67    7.43
   -9.71    4.36   -8.48
   -0.80   -5.31   -9.48
    1.34   11.05   -8.31
    8.47  -11.35    2.59
    4.96  -10.51   -7.20
   -9.35    3.08   -7.15
    9.43   10.47   -8.68
    4.47    4.21    6.54
    5.19    9.75    9.26
   -3.71  -12.00   -8.68
   -5.89  -12.01    6.08
    2.37   13.00    3.42
    3.05   -6.91    2.29
   -6.89  -12.76   -0.28
   13.29   -4.39   -3.67
   11.06   -6.86    9.46
   -8.28  -11.90   -0.22
  -12.62   -2.32    9.28
   -2.06  -14.35    5.18
  -10.34   -8.95   -0.93
   10.13    3.15    4.50
    8.47   -9.77   -5.79
    2.05   12.12   -7.96
   13.77   -1.56    8.60
   -6.39    0.08    8.28
    3.00    5.61   -9.49
   -0.94   -1.75   -9.35
   -7.46    2.13    9.49
   -0.88   -7.55   -2.33
    6.24  -12.15   -5.35
    0.52  -14.49    8.04
   -7.13  -12.63   -7.73
    2.01   -5.60   -9.41
   -9.17  -10.47   -0.88
  -10.21   -9.12    8.08
   -5.38    5.62   -5.57
    3.64    7.54    6.11
   13.38    5.08   -8.85
    9.30   -9.75    9.50
  -12.27   -0.72    8.42
  -12.76   -1.87   -9.44
   -2.09    8.49    9.03
    7.90  -10.69    9.43
   11.82   -5.25   -7.52
    4.61  -13.64    9.50
   13.92    0.16    9.50
   -9.47    2.00    4.62
   -6.54  -12.94    9.50
   10.00   -7.87   -8.66
   -6.48    3.80   -8.91
  -10.06    0.88    9.48
    6.47  -11.87   -7.82
  -12.30   -5.97   -9.48
   11.63   -1.96   -7.58
    3.70  -13.03    9.46
   -2.75   -4.17    6.85
   -7.26  -12.55    5.54
   12.59    0.96    8.77
   -3.90    2.54   -8.13
    3.12    2.80   -8.27
   -2.69  -13.69   -9.00
   12.07   -4.72   -9.32
    7.25   -9.86    5.80
    4.49    6.47   -1.84
   12.75   -1.45    8.97
   -6.91   -7.09   -8.08
   -9.86   -3.09   -9.33
   13.71   -4.13    4.35
    8.00   -5.87    4.02
   -3.22    1.40   -9.16
   -6.78    9.40   -9.49
    9.90  -10.53    9.31
   12.57   -7.08    8.11
    4.63    8.60   -7.97
   13.83    4.34    9.50
   -4.51    1.00    8.86
   13.47   -3.02    7.72
[...]
POINT_DATA 2000
SCALARS radius float
LOOKUP_TABLE default
  0.500000000000000     
  0.500000000000000     
  0.500000000000000     
  0.500000000000000     
  0.500000000000000     
  0.500000000000000     
  0.500000000000000     
  0.500000000000000     
  0.500000000000000     
  0.500000000000000     
  0.500000000000000     
  0.500000000000000     
  0.500000000000000     
  0.500000000000000     
  0.500000000000000     
  0.500000000000000     
  0.500000000000000     
  0.500000000000000     
  0.500000000000000     
  0.500000000000000     
  0.500000000000000     
  0.500000000000000     
  0.500000000000000     
  0.500000000000000     
  0.500000000000000     
  0.500000000000000     
  0.500000000000000     
  0.500000000000000     
  0.500000000000000     
  0.500000000000000     
  0.500000000000000     
  0.500000000000000     
  0.500000000000000     
  0.500000000000000     
  0.500000000000000     
  0.500000000000000     
  0.500000000000000     
  0.500000000000000     
  0.500000000000000     
  0.500000000000000     
  0.500000000000000     
  0.500000000000000     
  0.500000000000000     
  0.500000000000000     
  0.500000000000000     
  0.500000000000000     
  0.500000000000000     
  0.500000000000000     
  0.500000000000000     
  0.500000000000000     
  0.500000000000000     
  0.500000000000000     
  0.500000000000000     
  0.500000000000000     
  0.500000000000000     
  0.500000000000000     
  0.500000000000000     
  0.500000000000000     
  0.500000000000000     
  0.500000000000000     
  0.500000000000000     
  0.500000000000000     
  0.500000000000000     
  0.500000000000000     
  0.500000000000000     
  0.500000000000000     
  0.500000000000000     
  0.500000000000000     
  0.500000000000000     
  0.500000000000000     
  0.500000000000000     
  0.500000000000000     
  0.500000000000000     
  0.500000000000000     
  0.500000000000000     
  0.500000000000000     
  0.500000000000000     
  0.500000000000000     
  0.500000000000000     
  0.500000000000000     
  0.500000000000000     
  0.500000000000000     
  0.500000000000000     
  0.500000000000000     
  0.500000000000000     
  0.500000000000000     
  0.500000000000000     
  0.500000000000000     
  0.500000000000000     
  0.500000000000000     
  0.500000000000000     
  0.500000000000000     
  0.500000000000000     
  0.500000000000000     
  0.500000000000000     
  0.500000000000000     
  0.500000000000000     
  0.500000000000000     
  0.500000000000000     
  0.500000000000000     
  0.500000000000000     
  0.500000000000000     
  0.500000000000000     
  0.500000000000000     
  0.500000000000000     
  0.500000000000000     
  0.500000000000000     
  0.500000000000000     
  0.500000000000000     
  0.500000000000000     
  0.500000000000000     
  0.500000000000000     
  0.500000000000000     
  0.500000000000000     
  0.500000000000000     
  0.500000000000000     
  0.500000000000000     
  0.500000000000000     
  0.500000000000000     
  0.500000000000000     
  0.500000000000000     
  0.500000000000000     
  0.500000000000000     
  0.500000000000000     
  0.500000000000000     
  0.500000000000000     
  0.500000000000000     
  0.500000000000000     
  0.500000000000000     
  0.500000000000000     
  0.500000000000000     
  0.500000000000000     
  0.500000000000000     
  0.500000000000000     
  0.500000000000000     
  0.500000000000000     
  0.500000000000000     
  0.500000000000000     
  0.500000000000000     
  0.500000000000000     
  0.500000000000000     
  0.500000000000000     
  0.500000000000000     
  0.500000000000000     
  0.500000000000000     
  0.500000000000000     
  0.500000000000000     
  0.500000000000000     
  0.500000000000000     
  0.500000000000000     
  0.500000000000000     
  0.500000000000000     
  0.500000000000000     
  0.500000000000000     
  0.500000000000000     
  0.500000000000000     
  0.500000000000000     
  0.500000000000000     
  0.500000000000000     
  0.500000000000000     
  0.500000000000000     
  0.500000000000000     
  0.500000000000000     
  0.500000000000000     
  0.500000000000000     
  0.500000000000000     
  0.500000000000000     
  0.500000000000000     
  0.500000000000000     
  0.500000000000000     
  0.500000000000000     
  0.500000000000000     
  0.500000000000000     
  0.500000000000000     
  0.500000000000000     
  0.500000000000000     
  0.500000000000000     
  0.500000000000000     
  0.500000000000000     
  0.500000000000000     
  0.500000000000000     
  0.500000000000000     
  0.500000000000000     
  0.500000000000000     
  0.500000000000000     
  0.500000000000000     
  0.500000000000000     
  0.500000000000000     
  0.500000000000000     
  0.500000000000000     
  0.500000000000000     
  0.500000000000000     
  0.500000000000000     
  0.500000000000000     
  0.500000000000000     
  0.500000000000000     
  0.500000000000000     
  0.500000000000000     
  0.500000000000000     
  0.500000000000000     
  0.500000000000000     
  0.500000000000000     
  0.500000000000000     
  0.500000000000000     
  0.500000000000000     
  0.500000000000000     
  0.500000000000000     
  0.500000000000000     
  0.500000000000000     
  0.500000000000000     
  0.500000000000000     
  0.500000000000000     
  0.500000000000000     
  0.500000000000000     
  0.500000000000000     
  0.500000000000000     
  0.500000000000000     
  0.500000000000000     
  0.500000000000000     
  0.500000000000000     
  0.500000000000000     
  0.500000000000000     
  0.500000000000000     
  0.500000000000000     
  0.500000000000000     
  0.500000000000000     
  0.500000000000000     
  0.500000000000000     
  0.500000000000000     
  0.500000000000000     
  0.500000000000000     
  0.500000000000000     
  0.500000000000000     
  0.500000000000000     
  0.500000000000000     
  0.500000000000000     
  0.500000000000000     
  0.500000000000000     
  0.500000000000000     
  0.500000000000000     
  0.500000000000000     
  0.500000000000000     
  0.500000000000000     
  0.500000000000000     
  0.500000000000000     
  0.500000000000000     
  0.500000000000000     
  0.500000000000000     
  0.500000000000000     
  0.500000000000000     
  0.500000000000000     
  0.500000000000000     
  0.500000000000000     
  0.500000000000000     
  0.500000000000000     
  0.500000000000000     
  0.500000000000000     
  0.500000000000000     
  0.500000000000000     
  0.500000000000000     
  0.500000000000000     
  0.500000000000000     
  0.500000000000000     
  0.500000000000000     
  0.500000000000000     
  0.500000000000000     
  0.500000000000000     
  0.500000000000000     
  0.500000000000000     
  0.500000000000000     
  0.500000000000000     
  0.500000000000000     
  0.500000000000000     
  0.500000000000000     
  0.500000000000000     
  0.500000000000000     
  0.500000000000000     
  0.500000000000000     
  0.500000000000000     
  0.500000000000000     
  0.500000000000000     
  0.500000000000000     
  0.500000000000000     
  0.500000000000000     
  0.500000000000000     
  0.500000000000000     
  0.500000000000000     
  0.500000000000000     
  0.500000000000000     
  0.500000000000000     
  0.500000000000000     
  0.500000000000000     
  0.500000000000000     
  0.500000000000000     
  0.500000000000000     
  0.500000000000000     
  0.500000000000000     
  0.500000000000000     
  0.500000000000000     
  0.500000000000000     
  0.500000000000000     
  0.500000000000000     
  0.500000000000000     
  0.500000000000000     
  0.500000000000000     
  0.500000000000000     
  0.500000000000000     
  0.500000000000000     
  0.500000000000000     
  0.500000000000000     
  0.500000000000000     
  0.500000000000000     
  0.500000000000000     
  0.500000000000000     
  0.500000000000000     
  0.500000000000000     
  0.500000000000000     
  0.500000000000000     
  0.500000000000000     
  0.500000000000000     
  0.500000000000000     
  0.500000000000000     
  0.500000000000000     
  0.500000000000000     
  0.500000000000000     
  0.500000000000000     
  0.500000000000000     
  0.500000000000000     
  0.500000000000000     
  0.500000000000000     
  0.500000000000000     
  0.500000000000000     
  0.500000000000000     
  0.500000000000000     
  0.500000000000000     
  0.500000000000000     
  0.500000000000000     
  0.500000000000000     
  0.500000000000000     
  0.500000000000000     
  0.500000000000000     
  0.500000000000000     
  0.500000000000000     
  0.500000000000000     
  0.500000000000000     
  0.500000000000000     
  0.500000000000000     
  0.500000000000000     
  0.500000000000000     
  0.500000000000000     
  0.500000000000000     
  0.500000000000000     
  0.500000000000000     
  0.500000000000000     
  0.500000000000000     
  0.500000000000000     
  0.500000000000000     
  0.500000000000000     
  0.500000000000000     
  0.500000000000000     
  0.500000000000000     
  0.500000000000000     
  0.500000000000000     
  0.500000000000000     
  0.500000000000000     
  0.500000000000000     
  0.500000000000000     
  0.500000000000000     
  0.500000000000000     
  0.500000000000000     
  0.500000000000000     
  0.500000000000000     
  0.500000000000000     
  0.500000000000000     
  0.500000000000000     
  0.500000000000000     
  0.500000000000000     
  0.500000000000000     
  0.500000000000000     
  0.500000000000000     
  0.500000000000000     
  0.500000000000000     
  0.500000000000000     
  0.500000000000000     
  0.500000000000000     
  0.500000000000000     
  0.500000000000000     
  0.500000000000000     
  0.500000000000000     
  0.500000000000000     
  0.500000000000000     
  0.500000000000000     
  0.500000000000000     
  0.500000000000000     
  0.500000000000000     
  0.500000000000000     
  0.500000000000000     
  0.500000000000000     
  0.500000000000000     
  0.500000000000000     
  0.500000000000000     
  0.500000000000000     
  0.500000000000000     
  0.500000000000000     
  0.500000000000000     
  0.500000000000000     
  0.500000000000000     
  0.500000000000000     
  0.500000000000000     
  0.500000000000000     
  0.500000000000000     
  0.500000000000000     
  0.500000000000000     
  0.500000000000000     
  0.500000000000000     
  0.500000000000000     
  0.500000000000000     
  0.500000000000000     
  0.500000000000000     
  0.500000000000000     
  0.500000000000000     
  0.500000000000000     
  0.500000000000000     
  0.500000000000000     
  0.500000000000000     
  0.500000000000000     
  0.500000000000000     
  0.500000000000000     
  0.500000000000000     
  0.500000000000000     
  0.500000000000000     
  0.500000000000000     
  0.500000000000000     
  0.500000000000000     
  0.500000000000000     
  0.500000000000000     
  0.500000000000000     
  0.500000000000000     
  0.500000000000000     
  0.500000000000000     
  0.500000000000000     
  0.500000000000000     
  0.500000000000000     
  0.500000000000000     
  0.500000000000000     
  0.500000000000000     
  0.500000000000000     
  0.500000000000000     
  0.500000000000000     
  0.500000000000000     
  0.500000000000000     
  0.500000000000000     
  0.500000000000000     
  0.500000000000000     
  0.500000000000000     
  0.500000000000000     
  0.500000000000000     
  0.500000000000000     
  0.500000000000000     
  0.500000000000000     
  0.500000000000000     
  0.500000000000000     
  0.500000000000000     
  0.500000000000000     
  0.500000000000000     
  0.500000000000000     
  0.500000000000000     
  0.500000000000000     
  0.500000000000000     
  0.500000000000000     
  0.500000000000000     
  0.500000000000000     
  0.500000000000000     
  0.500000000000000     
  0.500000000000000     
  0.500000000000000     
  0.500000000000000     
  0.500000000000000     
  0.500000000000000     
  0.500000000000000     
  0.500000000000000     
  0.500000000000000     
  0.500000000000000     
  0.500000000000000     
  0.500000000000000     
  0.500000000000000     
  0.500000000000000     
  0.500000000000000     
  0.500000000000000     
  0.500000000000000     
  0.500000000000000     
  0.500000000000000     
  0.500000000000000     
  0.500000000000000     
  0.500000000000000     
  0.500000000000000     
  0.500000000000000     
  0.500000000000000     
  0.500000000000000     
  0.500000000000000     
  0.500000000000000     
  0.500000000000000     
  0.500000000000000     
  0.500000000000000     
  0.500000000000000     
  0.500000000000000     
  0.500000000000000     
  0.500000000000000     
  0.500000000000000     
  0.500000000000000     
  0.500000000000000     
  0.500000000000000     
  0.500000000000000     
  0.500000000000000     
  0.500000000000000     
  0.500000000000000     
  0.500000000000000     
  0.500000000000000     
  0.500000000000000     
  0.500000000000000     
  0.500000000000000     
  0.500000000000000     
  0.500000000000000     
  0.500000000000000     
  0.500000000000000     
  0.500000000000000     
  0.500000000000000     
  0.500000000000000     
  0.500000000000000     
  0.500000000000000     
  0.500000000000000     
  0.500000000000000     
  0.500000000000000     
  0.500000000000000     
  0.500000000000000     
  0.500000000000000     
  0.500000000000000     
  0.500000000000000     
  0.500000000000000     
  0.500000000000000     
  0.500000000000000     
  0.500000000000000     
  0.500000000000000     
  0.500000000000000     
  0.500000000000000     
  0.500000000000000     
  0.500000000000000     
  0.500000000000000     
  0.500000000000000     
  0.500000000000000     
  0.500000000000000     
  0.500000000000000     
  0.500000000000000     
  0.500000000000000     
  0.500000000000000     
  0.500000000000000     
  0.500000000000000     
  0.500000000000000     
  0.500000000000000     
  0.500000000000000     
  0.500000000000000     
  0.500000000000000     
  0.500000000000000     
  0.500000000000000     
  0.500000000000000     
  0.500000000000000     
  0.500000000000000     
  0.500000000000000     
  0.500000000000000     
  0.500000000000000     
  0.500000000000000     
  0.500000000000000     
  0.500000000000000     
  0.500000000000000     
  0.500000000000000     
  0.500000000000000     
  0.500000000000000     
  0.500000000000000     
  0.500000000000000     
  0.500000000000000     
  0.500000000000000     
  0.500000000000000     
  0.500000000000000     
  0.500000000000000     
  0.500000000000000     
  0.500000000000000     
  0.500000000000000     
  0.500000000000000     
  0.500000000000000     
  0.500000000000000     
  0.500000000000000     
  0.500000000000000     
  0.500000000000000     
  0.500000000000000     
  0.500000000000000     
  0.500000000000000     
  0.500000000000000     
  0.500000000000000     
  0.500000000000000     
  0.500000000000000     
  0.500000000000000     
  0.500000000000000     
  0.500000000000000     
  0.500000000000000     
  0.500000000000000     
  0.500000000000000     
  0.500000000000000     
  0.500000000000000     
  0.500000000000000     
  0.500000000000000     
  0.500000000000000     
  0.500000000000000     
  0.500000000000000     
  0.500000000000000     
  0.500000000000000     
  0.500000000000000     
  0.500000000000000     
  0.500000000000000     
  0.500000000000000     
  0.500000000000000     
  0.500000000000000     
  0.500000000000000     
  0.500000000000000     
  0.500000000000000     
  0.500000000000000     
  0.500000000000000     
  0.500000000000000     
  0.500000000000000     
  0.500000000000000     
  0.500000000000000     
  0.500000000000000     
  0.500000000000000     
  0.500000000000000     
  0.500000000000000     
  0.500000000000000     
  0.500000000000000     
  0.500000000000000     
  0.500000000000000     
  0.500000000000000     
  0.500000000000000     
  0.500000000000000     
  0.500000000000000     
  0.500000000000000     
  0.500000000000000     
  0.500000000000000     
  0.500000000000000     
  0.500000000000000     
  0.500000000000000     
  0.500000000000000     
  0.500000000000000     
  0.500000000000000     
  0.500000000000000     
  0.500000000000000     
  0.500000000000000     
  0.500000000000000     
  0.500000000000000     
  0.500000000000000     
  0.500000000000000     
  0.500000000000000     
  0.500000000000000     
  0.500000000000000     
  0.500000000000000     
  0.500000000000000     
  0.500000000000000     
  0.500000000000000     
  0.500000000000000     
  0.500000000000000     
  0.500000000000000     
  0.500000000000000     
  0.500000000000000     
  0.500000000000000     
  0.500000000000000     
  0.500000000000000     
  0.500000000000000     
  0.500000000000000     
  0.500000000000000     
  0.500000000000000     
  0.500000000000000     
  0.500000000000000     
  0.500000000000000     
  0.500000000000000     
  0.500000000000000     
  0.500000000000000     
  0.500000000000000     
  0.500000000000000     
  0.500000000000000     
  0.500000000000000     
  0.500000000000000     
  0.500000000000000     
  0.500000000000000     
  0.500000000000000     
  0.500000000000000     
  0.500000000000000     
  0.500000000000000     
  0.500000000000000     
  0.500000000000000     
  0.500000000000000     
  0.500000000000000     
  0.500000000000000     
  0.500000000000000     
  0.500000000000000     
  0.500000000000000     
  0.500000000000000     
  0.500000000000000     
  0.500000000000000     
  0.500000000000000     
  0.500000000000000     
  0.500000000000000     
  0.500000000000000     
  0.500000000000000     
  0.500000000000000     
  0.500000000000000     
  0.500000000000000     
  0.500000000000000     
  0.500000000000000     
  0.500000000000000     
  0.500000000000000     
  0.500000000000000     
  0.500000000000000     
  0.500000000000000     
  0.500000000000000     
  0.500000000000000     
  0.500000000000000     
  0.500000000000000     
  0.500000000000000     
  0.500000000000000     
  0.500000000000000     
  0.500000000000000     
  0.500000000000000     
  0.500000000000000     
  0.500000000000000     
  0.500000000000000     
  0.500000000000000     
  0.500000000000000     
  0.500000000000000     
  0.500000000000000     
  0.500000000000000     
  0.500000000000000     
  0.500000000000000     
  0.500000000000000     
  0.500000000000000     
  0.500000000000000     
  0.500000000000000     
  0.500000000000000     
  0.500000000000000     
  0.500000000000000     
  0.500000000000000     
  0.500000000000000     
  0.500000000000000     
  0.500000000000000     
  0.500000000000000     
  0.500000000000000     
  0.500000000000000     
  0.500000000000000     
  0.500000000000000     
  0.500000000000000     
  0.500000000000000     
  0.500000000000000     
  0.500000000000000     
  0.500000000000000     
  0.500000000000000     
  0.500000000000000     
  0.500000000000000     
  0.500000000000000     
  0.500000000000000     
  0.500000000000000     
  0.500000000000000     
  0.500000000000000     
  0.500000000000000     
  0.500000000000000     
  0.500000000000000     
  0.500000000000000     
  0.500000000000000     
  0.500000000000000     
  0.500000000000000     
  0.500000000000000     
  0.500000000000000     
  0.500000000000000     
  0.500000000000000     
  0.500000000000000     
  0.500000000000000     
  0.500000000000000     
  0.500000000000000     
  0.500000000000000     
  0.500000000000000     
  0.500000000000000     
  0.500000000000000     
  0.500000000000000     
  0.500000000000000     
  0.500000000000000     
  0.500000000000000     
  0.500000000000000     
  0.500000000000000     
  0.500000000000000     
  0.500000000000000     
  0.500000000000000     
  0.500000000000000     