# vtk DataFile Version 5.1
Data.vtk
ASCII
DATASET UNSTRUCTURED_GRID
 
POINTS 2000 float
   -8.11  -11.08   -0.17
    2.67  -14.25    1.63
   -6.26  -10.45    2.87
   -4.30  -11.97   -1.30
    2.83  -12.64    6.51
   -3.26  -10.63   -8.78
   -4.42  -13.81   -8.71
   -3.23  -10.50   -6.76
    0.02  -14.50   -5.60
   -1.79  -13.46   -0.87
    3.82  -11.49   -1.96
   -4.34   -9.43   -7.46
   -5.07  -12.60   -0.63
   -7.69  -10.97    1.41
    3.45  -12.45   -1.78
   -1.02  -14.46    0.87
   -1.78  -13.65    5.67
   -7.20  -10.11    5.07
   -8.87  -11.47    7.85
   -6.07  -11.13   -3.35
   -7.13   -9.32   -0.83
  -10.74   -9.74    6.15
    2.06  -11.96   -8.47
  -10.62   -8.77   -5.83
   -2.97  -12.73    0.55
    5.14  -13.56   -7.53
   -6.46   -9.51    5.40
   -1.68  -11.88    7.96
    5.54  -13.40   -0.48
    3.71  -11.29    2.79
   -5.96   -9.76   -2.26
    3.90  -13.96   -1.64
    3.42  -14.09    7.80
   -6.30  -12.06   -3.05
   -3.79  -10.92   -3.31
   -7.79  -10.38    6.23
    1.65  -11.49    7.08
    1.32  -12.22    5.09
    4.51  -12.75    0.51
   -5.81  -11.69    2.31
   -3.07  -14.17    2.63
   -2.81  -10.25   -0.63
    3.26  -11.64   -5.90
   -6.51  -10.76    1.94
    1.68  -11.75   -6.49
   -3.57  -14.05    9.50
   -3.75  -14.00    4.23
   -3.10  -12.58   -4.44
   -5.69  -13.34    5.84
   -8.05  -10.07   -8.72
   -6.82  -10.45   -6.54
   -0.94  -10.66    9.50
    1.82  -12.47    6.97
   -3.53  -13.24    2.10
    3.07  -13.47    4.80
    1.02  -14.46    0.41
    2.95  -14.19   -8.11
    6.57  -11.93    0.46
    1.29  -10.74   -0.30
    3.52  -13.31   -9.50
    4.24  -13.05   -1.89
    5.65  -12.52   -4.93
   -0.50  -12.83    7.05
  -10.61   -9.88    2.88
  -11.10   -9.28    2.25
   -1.16  -13.70    0.24
   -0.60  -10.41   -0.92
   -4.10  -13.04    3.98
   -5.23  -10.90   -0.52
   -7.91  -10.89   -4.62
    5.64  -12.25    6.46
  -11.13   -7.92   -5.75
   -7.24  -10.47   -2.35
    5.65  -13.35    5.23
   -2.01  -14.36    5.00
   -1.44   -9.85   -4.21
    2.15  -14.34    7.85
   -6.53  -12.94   -8.41
   -1.55  -13.45    2.10
   -0.71  -14.48   -3.09
   -5.48  -13.42    9.47
    1.02  -14.46    6.57
   -3.44  -12.47   -1.07
   -2.76  -14.13   -9.50
   -8.26   -9.01   -6.98
   -3.89  -12.24   -6.21
   -0.13  -11.05   -0.31
   -0.27  -14.50   -7.27
    5.87  -12.46   -0.03
   -4.71  -12.76    8.14
   -8.74  -10.56    0.46
   -4.95  -12.09   -8.60
    5.39  -12.43   -3.18
    4.85  -11.90    4.24
   -7.65  -11.13    3.75
    5.45  -13.42   -3.47
    2.17  -12.52    1.42
    3.66  -12.94    4.18
   -9.90  -10.60   -0.30
    6.16  -12.54   -2.55
   -5.19  -10.58    2.73
    0.75  -14.48   -4.68
    5.53  -13.41    1.47
    2.76  -14.23    7.06
    5.40  -11.59    0.15
    1.33  -14.44   -8.99
   -8.08   -9.61    5.67
    3.27  -12.13   -3.56
   -4.46   -9.50    4.90
   -0.55  -12.77    2.73
    4.40  -11.06    4.86
    0.97  -13.49   -2.10
   -6.87  -12.77   -3.78
   -1.39  -13.48   -7.80
   -9.88  -10.32    3.41
   -6.84  -11.60   -9.50
    2.47  -10.90   -0.52
    4.48  -11.84   -3.71
  -11.62   -8.65    6.25
    0.26  -10.69    6.50
   -4.91  -13.64    8.56
    6.49  -11.61    6.32
   -2.42  -12.41    7.55
    3.71  -14.02    4.25
    4.91  -12.33   -0.31
   -1.32  -14.44   -5.58
   -7.75  -12.25   -7.00
   -2.41  -10.95    0.14
  -10.46  -10.04   -9.50
   -5.42  -13.45   -9.39
   -5.14  -11.66   -3.69
    2.03  -12.89    2.78
    2.59  -14.04   -0.16
    3.91  -13.96    0.77
    0.35  -11.52   -7.84
   -3.74  -11.45    6.69
   -8.16   -8.38   -2.69
  -12.37   -7.38   -3.27
   -0.89  -13.55    9.50
  -11.61   -8.66    4.25
   -5.44  -12.53   -3.28
   -1.96   -9.36    0.36
    2.30  -13.35   -3.93
    1.48  -10.93    6.22
    5.79  -11.71    4.58
   -8.45   -9.75    6.64
    0.13  -12.56    5.19
    0.60  -13.52   -9.50
   -8.60  -10.70   -6.03
   -6.50   -9.88   -7.54
   -5.24  -12.45    5.61
    5.01  -13.61   -1.41
    4.17  -12.21    3.57
    4.33  -13.18   -4.98
   -2.62  -11.70   -4.07
    0.84  -10.76    0.59
   -0.76  -11.20    1.38
    1.06  -14.46    8.56
    2.55  -11.46    5.47
   -4.96  -13.62    3.48
    2.64  -12.39   -5.65
   -1.93  -14.37    8.52
   -6.60  -11.95   -8.31
   -3.84  -13.98    0.53
   -1.51  -11.52   -8.55
    1.44  -13.66    1.32
   -3.17  -11.20   -0.47
  -12.44   -7.42   -7.27
   -2.45  -14.29   -1.88
    0.53  -13.09   -7.61
   -9.91  -10.53   -1.30
    2.95  -13.19   -8.11
   -2.32  -12.41    8.55
    5.22  -13.49   -5.30
    4.92  -12.89    4.35
    3.34  -14.11   -0.82
   -0.81  -11.11    8.05
    0.92  -10.45    7.49
    4.86  -13.66   -4.26
   -1.98  -12.63   -0.29
   -6.73   -9.53   -4.44
   -1.99  -14.36    1.10
   -5.06  -13.59   -0.74
   -1.09  -10.90   -9.22
   -6.12  -10.44    8.27
   -8.95  -11.41   -4.93
    4.92  -11.56   -2.66
   -9.00   -8.06   -3.13
   -2.15  -10.20    4.93
   -4.10   -9.79   -0.15
    0.05  -13.12   -2.10
   -5.37  -10.73    5.11
  -10.60   -9.83    7.98
   -1.93  -10.23   -7.90
    1.08  -14.46   -5.93
   -7.73  -11.35    7.15
    3.41  -11.78   -9.44
   -9.27  -10.10   -5.53
    0.15  -11.24   -1.49
   -6.27  -13.05   -2.94
   -3.44  -13.49    6.25
   -4.54  -13.77    9.48
   -4.71  -12.73   -4.32
    0.50  -13.04   -1.15
   -3.18  -10.76    1.73
    0.73  -11.84   -5.22
   -3.51  -14.07   -8.41
   -0.49  -10.90    7.12
    0.38  -14.50   -9.50
   -4.55  -11.05   -8.59
    1.34  -13.58    7.12
   -3.68  -11.33   -8.15
    2.04  -14.36    3.77
   -3.48  -11.41   -1.40
    6.10  -13.15   -8.77
   -3.18  -14.15   -0.30
    0.59  -14.49    1.31
   -1.47  -11.39    3.78
    1.28  -12.57   -6.92
    2.72  -11.76   -1.69
    3.71  -14.02    9.50
   -6.10  -12.19    7.07
    0.78  -11.68   -6.95
    1.77  -13.52   -2.70
   -8.32  -10.89    8.76
   -1.99  -12.47    9.50
    2.46  -11.16   -4.29
   -8.49  -11.75   -3.23
    2.88  -11.49    7.36
   -4.63  -10.14   -9.49
   -3.15   -9.46   -3.79
   -3.28  -13.17    4.54
   -5.13  -10.36   -5.20
    0.90  -13.04    8.03
   -6.49  -10.27   -3.81
    0.92  -10.60   -1.24
    5.78  -13.30    0.50
    1.36  -14.44    1.94
   -5.95  -11.33    3.23
   -0.66  -11.90   -6.17
    2.34  -12.85    4.50
   -2.59  -14.27    9.49
   -3.56   -9.55   -6.80
   -6.95   -9.85   -9.50
   -0.40  -14.49    3.73
    3.45  -11.60   -0.12
   -6.42  -10.70   -9.46
   -1.46  -14.42   -2.44
    4.31  -13.14    9.50
   -5.12  -10.41    8.22
    1.83  -12.77   -2.05
   -0.57  -10.98   -8.00
    0.17  -12.35   -8.36
  -10.66   -8.17    5.32
   -5.30  -13.50    6.74
   -2.79  -12.48    3.73
   -0.53  -12.33   -9.50
   -9.38   -8.62    3.35
    0.75  -12.26   -6.13
   -6.23  -12.06   -2.03
   -6.35  -13.04   -9.50
   -0.96  -13.63   -8.68
    4.62  -11.69    2.83
    4.25  -13.86    8.67
    0.79  -11.00   -4.69
  -11.57   -7.72   -3.79
  -11.00   -9.44    4.39
    6.24  -13.09    8.22
   -4.67  -10.21   -8.06
   -0.92  -11.91   -7.83
   -4.38  -12.97   -1.26
    2.47  -13.11    0.19
  -11.85   -7.81   -7.98
  -10.17  -10.31   -8.43
   -3.33  -13.10   -9.50
   -5.47  -11.02    6.12
   -2.87  -13.18    2.92
   -4.00  -13.17    8.71
   -3.97  -13.35   -7.90
    0.70  -11.47   -0.68
    0.96  -11.95    4.15
  -11.08   -8.14    8.38
   -6.67  -11.97   -5.43
    1.72  -12.34    9.50
    6.07  -12.28   -1.58
    1.57  -14.41    5.43
    1.74  -13.67   -0.55
   -0.39  -12.58    8.02
    3.63  -14.04   -8.82
   -4.37  -13.83    6.42
   -3.56  -11.28    2.49
    5.30  -12.96    8.52
    4.11  -13.45   -2.80
   -0.02  -13.59   -6.93
   -2.09  -13.38    8.52
   -6.95  -11.76   -1.35
  -11.00   -6.93   -5.67
   -1.26  -13.60    7.55
   -4.35  -10.48    5.07
   -7.49   -8.97   -4.83
    0.73  -12.00    0.20
  -12.16   -7.90    5.73
    0.80  -13.83    2.51
    0.91  -14.47   -1.91
   -5.41  -13.45    0.20
   -6.64  -10.66    7.37
   -0.86  -14.47    6.59
  -12.35   -7.41   -4.89
    3.44  -12.71   -2.75
    3.35  -12.13    8.75
   -4.24  -11.80   -7.04
   -1.33  -13.51    6.55
    4.30  -13.85   -0.74
    7.74  -12.26   -0.93
   -4.73  -12.66   -7.80
   -3.93  -13.96   -4.46
   -3.94  -10.87   -9.50
   -1.62  -14.41   -3.53
    3.19  -11.49    1.57
    2.93  -12.71   -7.24
   -2.21  -11.52   -6.91
    3.48  -14.08   -6.29
   -2.15  -12.60   -1.28
   -4.28  -11.79   -3.11
    3.67  -13.26   -5.74
   -3.25  -14.13   -1.31
    3.49  -12.26    2.66
   -1.83  -14.38    6.39
   -2.56  -11.26   -5.44
   -1.59  -11.78    1.49
    1.83  -14.38   -3.20
   -2.45  -11.02   -1.15
   -4.87   -9.31    1.37
    1.34  -12.74   -3.16
   -4.50  -11.09    8.61
    2.96  -11.03   -2.49
    3.95  -12.91    8.60
   -1.49  -10.16    1.59
    3.85  -11.30   -0.98
   -6.40  -13.00   -1.73
    2.40  -14.30   -5.96
   -7.61  -12.34   -9.50
   -7.76  -12.24    5.47
    3.23  -13.08    5.70
   -5.56  -11.20   -9.50
   -0.14  -12.37   -7.40
   -0.42  -14.49    7.49
    5.05  -13.59   -2.50
   -1.92  -12.50   -3.49
   -3.13   -9.90    4.67
   -0.03  -10.87   -4.02
   -5.14   -9.48   -8.55
    1.89  -10.75   -2.10
    2.25  -11.11    2.90
   -1.47  -13.61   -6.12
    4.04  -13.92    7.03
   -5.98  -13.21   -3.89
   -9.71   -9.01    8.37
    3.26  -14.13    6.19
    1.73  -10.65   -4.76
   -7.29  -10.76    8.78
   -6.65   -8.37    9.34
    0.64  -14.49   -6.84
   -3.83   -9.13    9.37
  -11.96   -8.20    9.50
    7.12  -12.63    0.91
    1.59  -11.27    5.24
   -7.47  -11.27   -7.05
    1.75  -14.39   -6.72
    0.46  -14.49    9.50
   -7.63  -10.98   -6.06
    1.48  -11.74   -9.50
   -7.78  -12.23   -3.93
   -4.79   -9.64    8.86
    2.68  -13.70   -3.07
    1.91  -10.60    2.12
   -4.57  -13.76    5.44
    0.13  -14.50   -3.89
   -0.96  -13.59   -5.19
   -0.85  -10.20   -7.02
   -4.72  -11.13   -7.60
    1.71  -14.40   -4.20
    1.39  -13.51   -4.56
   -4.69  -12.80    7.11
    4.69  -12.22   -4.87
   -1.40  -11.82   -9.50
    0.34  -13.88   -3.13
  -10.97   -9.48   -0.03
    1.35  -12.54   -4.87
   -0.42  -13.43   -9.50
  -10.44   -7.52    8.95
  -10.54   -9.95    5.11
    4.44  -13.80   -8.28
   -3.63  -14.03    5.23
    4.53  -12.01    6.82
   -8.15  -11.97    3.54
[...]
POINT_DATA 2000
SCALARS radius float
LOOKUP_TABLE default
  0.500000000000000     
  0.500000000000000     
  0.500000000000000     
  0.500000000000000     
  0.500000000000000     
  0.500000000000000     
  0.500000000000000     
  0.500000000000000     
  0.500000000000000     
  0.500000000000000     
  0.500000000000000     
  0.500000000000000     
  0.500000000000000     
  0.500000000000000     
  0.500000000000000     
  0.500000000000000     
  0.500000000000000     
  0.500000000000000     
  0.500000000000000     
  0.500000000000000     
  0.500000000000000     
  0.500000000000000     
  0.500000000000000     
  0.500000000000000     
  0.500000000000000     
  0.500000000000000     
  0.500000000000000     
  0.500000000000000     
  0.500000000000000     
  0.500000000000000     
  0.500000000000000     
  0.500000000000000     
  0.500000000000000     
  0.500000000000000     
  0.500000000000000     
  0.500000000000000     
  0.500000000000000     
  0.500000000000000     
  0.500000000000000     
  0.500000000000000     
  0.500000000000000     
  0.500000000000000     
  0.500000000000000     
  0.500000000000000     
  0.500000000000000     
  0.500000000000000     
  0.500000000000000     
  0.500000000000000     
  0.500000000000000     
  0.500000000000000     
  0.500000000000000     
  0.500000000000000     
  0.500000000000000     
  0.500000000000000     
  0.500000000000000     
  0.500000000000000     
  0.500000000000000     
  0.500000000000000     
  0.500000000000000     
  0.500000000000000     
  0.500000000000000     
  0.500000000000000     
  0.500000000000000     
  0.500000000000000     
  0.500000000000000     
  0.500000000000000     
  0.500000000000000     
  0.500000000000000     
  0.500000000000000     
  0.500000000000000     
  0.500000000000000     
  0.500000000000000     
  0.500000000000000     
  0.500000000000000     
  0.500000000000000     
  0.500000000000000     
  0.500000000000000     
  0.500000000000000     
  0.500000000000000     
  0.500000000000000     
  0.500000000000000     
  0.500000000000000     
  0.500000000000000     
  0.500000000000000     
  0.500000000000000     
  0.500000000000000     
  0.500000000000000     
  0.500000000000000     
  0.500000000000000     
  0.500000000000000     
  0.500000000000000     
  0.500000000000000     
  0.500000000000000     
  0.500000000000000     
  0.500000000000000     
  0.500000000000000     
  0.500000000000000     
  0.500000000000000     
  0.500000000000000     
  0.500000000000000     
  0.500000000000000     
  0.500000000000000     
  0.500000000000000     
  0.500000000000000     
  0.500000000000000     
  0.500000000000000     
  0.500000000000000     
  0.500000000000000     
  0.500000000000000     
  0.500000000000000     
  0.500000000000000     
  0.500000000000000     
  0.500000000000000     
  0.500000000000000     
  0.500000000000000     
  0.500000000000000     
  0.500000000000000     
  0.500000000000000     
  0.500000000000000     
  0.500000000000000     
  0.500000000000000     
  0.500000000000000     
  0.500000000000000     
  0.500000000000000     
  0.500000000000000     
  0.500000000000000     
  0.500000000000000     
  0.500000000000000     
  0.500000000000000     
  0.500000000000000     
  0.500000000000000     
  0.500000000000000     
  0.500000000000000     
  0.500000000000000     
  0.500000000000000     
  0.500000000000000     
  0.500000000000000     
  0.500000000000000     
  0.500000000000000     
  0.500000000000000     
  0.500000000000000     
  0.500000000000000     
  0.500000000000000     
  0.500000000000000     
  0.500000000000000     
  0.500000000000000     
  0.500000000000000     
  0.500000000000000     
  0.500000000000000     
  0.500000000000000     
  0.500000000000000     
  0.500000000000000     
  0.500000000000000     
  0.500000000000000     
  0.500000000000000     
  0.500000000000000     
  0.500000000000000     
  0.500000000000000     
  0.500000000000000     
  0.500000000000000     
  0.500000000000000     
  0.500000000000000     
  0.500000000000000     
  0.500000000000000     
  0.500000000000000     
  0.500000000000000     
  0.500000000000000     
  0.500000000000000     
  0.500000000000000     
  0.500000000000000     
  0.500000000000000     
  0.500000000000000     
  0.500000000000000     
  0.500000000000000     
  0.500000000000000     
  0.500000000000000     
  0.500000000000000     
  0.500000000000000     
  0.500000000000000     
  0.500000000000000     
  0.500000000000000     
  0.500000000000000     
  0.500000000000000     
  0.500000000000000     
  0.500000000000000     
  0.500000000000000     
  0.500000000000000     
  0.500000000000000     
  0.500000000000000     
  0.500000000000000     
  0.500000000000000     
  0.500000000000000     
  0.500000000000000     
  0.500000000000000     
  0.500000000000000     
  0.500000000000000     
  0.500000000000000     
  0.500000000000000     
  0.500000000000000     
  0.500000000000000     
  0.500000000000000     
  0.500000000000000     
  0.500000000000000     
  0.500000000000000     
  0.500000000000000     
  0.500000000000000     
  0.500000000000000     
  0.500000000000000     
  0.500000000000000     
  0.500000000000000     
  0.500000000000000     
  0.500000000000000     
  0.500000000000000     
  0.500000000000000     
  0.500000000000000     
  0.500000000000000     
  0.500000000000000     
  0.500000000000000     
  0.500000000000000     
  0.500000000000000     
  0.500000000000000     
  0.500000000000000     
  0.500000000000000     
  0.500000000000000     
  0.500000000000000     
  0.500000000000000     
  0.500000000000000     
  0.500000000000000     
  0.500000000000000     
  0.500000000000000     
  0.500000000000000     
  0.500000000000000     
  0.500000000000000     
  0.500000000000000     
  0.500000000000000     
  0.500000000000000     
  0.500000000000000     
  0.500000000000000     
  0.500000000000000     
  0.500000000000000     
  0.500000000000000     
  0.500000000000000     
  0.500000000000000     
  0.500000000000000     
  0.500000000000000     
  0.500000000000000     
  0.500000000000000     
  0.500000000000000     
  0.500000000000000     
  0.500000000000000     
  0.500000000000000     
  0.500000000000000     
  0.500000000000000     
  0.500000000000000     
  0.500000000000000     
  0.500000000000000     
  0.500000000000000     
  0.500000000000000     
  0.500000000000000     
  0.500000000000000     
  0.500000000000000     
  0.500000000000000     
  0.500000000000000     
  0.500000000000000     
  0.500000000000000     
  0.500000000000000     
  0.500000000000000     
  0.500000000000000     
  0.500000000000000     
  0.500000000000000     
  0.500000000000000     
  0.500000000000000     
  0.500000000000000     
  0.500000000000000     
  0.500000000000000     
  0.500000000000000     
  0.500000000000000     
  0.500000000000000     
  0.500000000000000     
  0.500000000000000     
  0.500000000000000     
  0.500000000000000     
  0.500000000000000     
  0.500000000000000     
  0.500000000000000     
  0.500000000000000     
  0.500000000000000     
  0.500000000000000     
  0.500000000000000     
  0.500000000000000     
  0.500000000000000     
  0.500000000000000     
  0.500000000000000     
  0.500000000000000     
  0.500000000000000     
  0.500000000000000     
  0.500000000000000     
  0.500000000000000     
  0.500000000000000     
  0.500000000000000     
  0.500000000000000     
  0.500000000000000     
  0.500000000000000     
  0.500000000000000     
  0.500000000000000     
  0.500000000000000     
  0.500000000000000     
  0.500000000000000     
  0.500000000000000     
  0.500000000000000     
  0.500000000000000     
  0.500000000000000     
  0.500000000000000     
  0.500000000000000     
  0.500000000000000     
  0.500000000000000     
  0.500000000000000     
  0.500000000000000     
  0.500000000000000     
  0.500000000000000     
  0.500000000000000     
  0.500000000000000     
  0.500000000000000     
  0.500000000000000     
  0.500000000000000     
  0.500000000000000     
  0.500000000000000     
  0.500000000000000     
  0.500000000000000     
  0.500000000000000     
  0.500000000000000     
  0.500000000000000     
  0.500000000000000     
  0.500000000000000     
  0.500000000000000     
  0.500000000000000     
  0.500000000000000     
  0.500000000000000     
  0.500000000000000     
  0.500000000000000     
  0.500000000000000     
  0.500000000000000     
  0.500000000000000     
  0.500000000000000     
  0.500000000000000     
  0.500000000000000     
  0.500000000000000     
  0.500000000000000     
  0.500000000000000     
  0.500000000000000     
  0.500000000000000     
  0.500000000000000     
  0.500000000000000     
  0.500000000000000     
  0.500000000000000     
  0.500000000000000     
  0.500000000000000     
  0.500000000000000     
  0.500000000000000     
  0.500000000000000     
  0.500000000000000     
  0.500000000000000     
  0.500000000000000     
  0.500000000000000     
  0.500000000000000     
  0.500000000000000     
  0.500000000000000     
  0.500000000000000     
  0.500000000000000     
  0.500000000000000     
  0.500000000000000     
  0.500000000000000     
  0.500000000000000     
  0.500000000000000     
  0.500000000000000     
  0.500000000000000     
  0.500000000000000     
  0.500000000000000     
  0.500000000000000     
  0.500000000000000     
  0.500000000000000     
  0.500000000000000     
  0.500000000000000     
  0.500000000000000     
  0.500000000000000     
  0.500000000000000     
  0.500000000000000     
  0.500000000000000     
  0.500000000000000     
  0.500000000000000     
  0.500000000000000     
  0.500000000000000     
  0.500000000000000     
  0.500000000000000     
  0.500000000000000     
  0.500000000000000     
  0.500000000000000     
  0.500000000000000     
  0.500000000000000     
  0.500000000000000     
  0.500000000000000     
  0.500000000000000     
  0.500000000000000     
  0.500000000000000     
  0.500000000000000     
  0.500000000000000     
  0.500000000000000     
  0.500000000000000     
  0.500000000000000     
  0.500000000000000     
  0.500000000000000     
  0.500000000000000     
  0.500000000000000     
  0.500000000000000     
  0.500000000000000     
  0.500000000000000     
  0.500000000000000     
  0.500000000000000     
  0.500000000000000     
  0.500000000000000     
  0.500000000000000     
  0.500000000000000     
  0.500000000000000     
  0.500000000000000     
  0.500000000000000     
  0.500000000000000     
  0.500000000000000     
  0.500000000000000     
  0.500000000000000     
  0.500000000000000     
  0.500000000000000     
  0.500000000000000     
  0.500000000000000     
  0.500000000000000     
  0.500000000000000     
  0.500000000000000     
  0.500000000000000     
  0.500000000000000     
  0.500000000000000     
  0.500000000000000     
  0.500000000000000     
  0.500000000000000     
  0.500000000000000     
  0.500000000000000     
  0.500000000000000     
  0.500000000000000     
  0.500000000000000     
  0.500000000000000     
  0.500000000000000     
  0.500000000000000     
  0.500000000000000     
  0.500000000000000     
  0.500000000000000     
  0.500000000000000     
  0.500000000000000     
  0.500000000000000     
  0.500000000000000     
  0.500000000000000     
  0.500000000000000     
  0.500000000000000     
  0.500000000000000     
  0.500000000000000     
  0.500000000000000     
  0.500000000000000     
  0.500000000000000     
  0.500000000000000     
  0.500000000000000     
  0.500000000000000     
  0.500000000000000     
  0.500000000000000     
  0.500000000000000     
  0.500000000000000     
  0.500000000000000     
  0.500000000000000     
  0.500000000000000     
  0.500000000000000     
  0.500000000000000     
  0.500000000000000     
  0.500000000000000     
  0.500000000000000     
  0.500000000000000     
  0.500000000000000     
  0.500000000000000     
  0.500000000000000     
  0.500000000000000     
  0.500000000000000     
  0.500000000000000     
  0.500000000000000     
  0.500000000000000     
  0.500000000000000     
  0.500000000000000     
  0.500000000000000     
  0.500000000000000     
  0.500000000000000     
  0.500000000000000     
  0.500000000000000     
  0.500000000000000     
  0.500000000000000     
  0.500000000000000     
  0.500000000000000     
  0.500000000000000     
  0.500000000000000     
  0.500000000000000     
  0.500000000000000     
  0.500000000000000     
  0.500000000000000     
  0.500000000000000     
  0.500000000000000     
  0.500000000000000     
  0.500000000000000     
  0.500000000000000     
  0.500000000000000     
  0.500000000000000     
  0.500000000000000     
  0.500000000000000     
  0.500000000000000     
  0.500000000000000     
  0.500000000000000     
  0.500000000000000     
  0.500000000000000     
  0.500000000000000     
  0.500000000000000     
  0.500000000000000     
  0.500000000000000     
  0.500000000000000     
  0.500000000000000     
  0.500000000000000     
  0.500000000000000     
  0.500000000000000     
  0.500000000000000     
  0.500000000000000     
  0.500000000000000     
  0.500000000000000     
  0.500000000000000     
  0.500000000000000     
  0.500000000000000     
  0.500000000000000     
  0.500000000000000     
  0.500000000000000     
  0.500000000000000     
  0.500000000000000     
  0.500000000000000     
  0.500000000000000     
  0.500000000000000     
  0.500000000000000     
  0.500000000000000     
  0.500000000000000     
  0.500000000000000     
  0.500000000000000     
  0.500000000000000     
  0.500000000000000     
  0.500000000000000     
  0.500000000000000     
  0.500000000000000     
  0.500000000000000     
  0.500000000000000     
  0.500000000000000     
  0.500000000000000     
  0.500000000000000     
  0.500000000000000     
  0.500000000000000     
  0.500000000000000     
  0.500000000000000     
  0.500000000000000     
  0.500000000000000     
  0.500000000000000     
  0.500000000000000     
  0.500000000000000     
  0.500000000000000     
  0.500000000000000     
  0.500000000000000     
  0.500000000000000     
  0.500000000000000     
  0.500000000000000     
  0.500000000000000     
  0.500000000000000     
  0.500000000000000     
  0.500000000000000     
  0.500000000000000     
  0.500000000000000     
  0.500000000000000     
  0.500000000000000     
  0.500000000000000     
  0.500000000000000     
  0.500000000000000     
  0.500000000000000     
  0.500000000000000     
  0.500000000000000     
  0.500000000000000     
  0.500000000000000     
  0.500000000000000     
  0.500000000000000     
  0.500000000000000     
  0.500000000000000     
  0.500000000000000     
  0.500000000000000     
  0.500000000000000     
  0.500000000000000     
  0.500000000000000     
  0.500000000000000     
  0.500000000000000     
  0.500000000000000     
  0.500000000000000     
  0.500000000000000     
  0.500000000000000     
  0.500000000000000     
  0.500000000000000     
  0.500000000000000     
  0.500000000000000     
  0.500000000000000     
  0.500000000000000     
  0.500000000000000     
  0.500000000000000     
  0.500000000000000     
  0.500000000000000     
  0.500000000000000     
  0.500000000000000     
  0.500000000000000     
  0.500000000000000     
  0.500000000000000     
  0.500000000000000     
  0.500000000000000     
  0.500000000000000     
  0.500000000000000     
  0.500000000000000     
  0.500000000000000     
  0.500000000000000     
  0.500000000000000     
  0.500000000000000     
  0.500000000000000     
  0.500000000000000     
  0.500000000000000     
  0.500000000000000     
  0.500000000000000     
  0.500000000000000     
  0.500000000000000     
  0.500000000000000     
  0.500000000000000     
  0.500000000000000     
  0.500000000000000     
  0.500000000000000     
  0.500000000000000     
  0.500000000000000     
  0.500000000000000     
  0.500000000000000     
  0.500000000000000     
  0.500000000000000     
  0.500000000000000     
  0.500000000000000     
  0.500000000000000     
  0.500000000000000     
  0.500000000000000     
  0.500000000000000     
  0.500000000000000     
  0.500000000000000     
  0.500000000000000     
  0.500000000000000     
  0.500000000000000     
  0.500000000000000     
  0.500000000000000     
  0.500000000000000     
  0.500000000000000     
  0.500000000000000     
  0.500000000000000     
  0.500000000000000     
  0.500000000000000     
  0.500000000000000     
  0.500000000000000     
  0.500000000000000     
  0.500000000000000     
  0.500000000000000     
  0.500000000000000     
  0.500000000000000     
  0.500000000000000     
  0.500000000000000     
  0.500000000000000     
  0.500000000000000     
  0.500000000000000     
  0.500000000000000     
  0.500000000000000     
  0.500000000000000     
  0.500000000000000     
  0.500000000000000     
  0.500000000000000     
  0.500000000000000     
  0.500000000000000     
  0.500000000000000     
  0.500000000000000     
  0.500000000000000     
  0.500000000000000     
  0.500000000000000     
  0.500000000000000     
  0.500000000000000     
  0.500000000000000     
  0.500000000000000     
  0.500000000000000     
  0.500000000000000     
  0.500000000000000     
  0.500000000000000     
  0.500000000000000     
  0.500000000000000     
  0.500000000000000     
  0.500000000000000     
  0.500000000000000     
  0.500000000000000     
  0.500000000000000     
  0.500000000000000     
  0.500000000000000     
  0.500000000000000     
  0.500000000000000     
  0.500000000000000     
  0.500000000000000     
  0.500000000000000     
  0.500000000000000     
  0.500000000000000     
  0.500000000000000     
  0.500000000000000     
  0.500000000000000     
  0.500000000000000     
  0.500000000000000     
  0.500000000000000     
  0.500000000000000     
  0.500000000000000     
  0.500000000000000     
  0.500000000000000     
  0.500000000000000     
  0.500000000000000     
  0.500000000000000     
  0.500000000000000     
  0.500000000000000     
  0.500000000000000     
  0.500000000000000     
  0.500000000000000     
  0.500000000000000     
  0.500000000000000     
  0.500000000000000     
  0.500000000000000     
  0.500000000000000     
  0.500000000000000     
  0.500000000000000     
  0.500000000000000     
  0.500000000000000     
  0.500000000000000     
  0.500000000000000     
  0.500000000000000     
  0.500000000000000     
  0.500000000000000     
  0.500000000000000     
  0.500000000000000     
  0.500000000000000     
  0.500000000000000     
  0.500000000000000     
  0.500000000000000     
  0.500000000000000     
  0.500000000000000     
  0.500000000000000     
  0.500000000000000     
  0.500000000000000     
  0.500000000000000     
  0.500000000000000     
  0.500000000000000     
  0.500000000000000     
  0.500000000000000     
  0.500000000000000     
  0.500000000000000     
  0.500000000000000     
  0.500000000000000     
  0.500000000000000     
  0.500000000000000     
  0.500000000000000     
  0.500000000000000     
  0.500000000000000     
  0.500000000000000     
  0.500000000000000     
  0.500000000000000     
  0.500000000000000     
  0.500000000000000     
  0.500000000000000     
  0.500000000000000     
  0.500000000000000     
  0.500000000000000     
  0.500000000000000     
  0.500000000000000     
  0.500000000000000     
  0.500000000000000     
  0.500000000000000     
  0.500000000000000     
  0.500000000000000     
  0.500000000000000     
  0.500000000000000     
  0.500000000000000     
  0.500000000000000     
  0.500000000000000     
  0.500000000000000     
  0.500000000000000     
  0.500000000000000     
  0.500000000000000     