# vtk DataFile Version 5.1
Data.vtk
ASCII
DATASET UNSTRUCTURED_GRID
 
POINTS 2000 float
   -9.22   -9.98   -1.26
   -2.97  -14.19    1.58
   -2.19  -10.86    1.44
   -4.60   -9.70   -1.05
   -4.96  -12.77    8.63
  -11.54   -7.26   -8.96
  -13.15   -6.10   -8.13
   -0.26  -11.59   -8.69
    2.95  -13.31   -7.44
   -4.52  -12.07   -0.43
    0.04  -14.50   -6.53
   -2.49  -13.16   -7.67
  -11.38   -8.90   -3.31
   -1.80  -13.32    4.71
    6.07  -12.61   -0.01
   -9.99  -10.38    4.22
    1.45  -13.86    6.49
   -9.77   -7.85    6.23
   -5.20   -9.56    6.15
    3.77  -12.30   -7.48
    3.46  -12.05    0.09
   -7.06   -8.42    1.29
   -4.01   -9.78   -8.29
    4.48  -13.00   -7.97
   -6.25  -12.16   -2.41
    3.51  -14.07    0.44
    0.58  -13.48    6.87
   -2.02  -11.13    7.52
    2.00  -14.36   -6.12
   -8.01  -10.81    9.50
   -0.75  -11.22   -4.74
   -6.27  -13.07    0.77
  -10.15   -6.69    6.13
   -1.39  -13.55   -3.30
    2.93  -11.14   -3.31
   -4.46   -9.05    4.91
   -6.83  -12.66    8.36
    1.15  -12.11    4.72
    3.26  -14.13    1.48
   -1.48  -13.50    3.14
  -11.79   -7.88   -2.66
    1.53  -11.59   -0.92
   -0.68  -12.80   -6.21
   -6.16  -11.29    0.60
   -3.56  -13.03   -8.57
  -10.80   -9.68    4.91
   -7.92   -8.00    4.99
    0.96  -11.80   -4.23
    1.70  -14.16    0.11
    4.45  -11.79   -5.32
   -2.74   -9.95   -2.26
   -0.26  -11.75    8.70
  -10.78   -9.70    9.50
    0.09  -13.75    2.65
   -5.40  -13.46    6.35
    0.44  -13.73   -1.39
   -8.47  -11.74   -7.59
    1.95  -13.84    3.62
    5.28  -12.45    0.79
   -6.28   -9.99   -8.76
    3.09  -14.17   -2.39
   -5.25  -11.17   -9.48
   -8.47   -8.42    7.22
   -2.09  -10.23   -1.54
  -11.29   -8.80    0.51
    2.17  -13.00    2.29
   -4.18   -9.53   -7.24
   -6.09  -13.16    4.48
   -7.39   -8.08   -6.32
   -4.80  -13.10   -2.52
    3.50  -14.07    7.56
   -0.07  -13.51   -8.87
   -8.47   -8.81   -6.57
   -4.63  -13.74    4.96
  -13.93   -4.02    7.49
   -2.56  -14.27   -9.50
  -13.37   -5.57    7.46
   -5.89   -9.31   -5.81
   -1.65  -13.70    1.89
   -8.20  -11.92    0.46
   -2.78  -10.35    8.60
  -13.77   -4.56    6.60
   -6.59  -10.30   -4.56
  -12.95   -4.23   -9.50
   -0.78  -10.96   -5.71
   -5.33  -10.89   -7.53
    5.10  -12.66    3.59
  -10.32  -10.19   -8.33
    0.21  -14.50    1.70
   -3.52  -12.39    6.58
   -5.08  -13.58   -0.57
    4.94  -12.77   -9.22
  -11.61   -8.68   -8.51
   -5.73  -13.32    9.50
   -7.70   -7.53    6.41
   -4.02  -13.17   -3.64
    4.53  -12.16    4.29
    0.64  -13.50    5.15
   -6.85   -9.29   -5.13
    5.84  -13.08   -3.17
   -5.28   -8.89    1.82
   -6.36  -13.02   -8.47
   -1.57  -14.41    2.67
   -9.37  -10.94    8.51
    3.61  -13.03    2.06
  -12.72   -6.93   -8.50
   -6.38   -9.21    1.89
   -8.01  -12.08   -8.41
    0.01  -11.11    6.48
   -0.42  -10.92    2.89
   -4.74  -13.70    9.50
   -0.12  -11.79   -0.84
  -11.81   -7.56   -1.56
  -10.02   -9.22   -6.82
   -9.99   -7.96    3.76
   -8.67  -10.39   -8.57
    6.94  -12.73    1.31
   -1.84  -13.55   -6.75
   -0.95   -9.54    5.07
  -12.20   -7.84    8.40
   -6.52   -9.39    4.37
   -8.12   -9.46    9.06
   -1.80  -13.51    9.20
   -3.86  -13.98    4.37
   -8.03  -12.08   -1.94
   -7.16  -12.61   -3.81
   -4.95   -9.32   -4.11
    7.14  -12.62    4.87
   -2.75  -10.81   -7.45
   -3.23   -9.74   -6.62
   -2.82  -11.88   -3.17
    4.01  -13.93    5.91
   -5.30  -13.41   -3.41
   -5.95  -13.21   -0.87
    1.05  -12.85   -8.26
   -3.65  -10.03    6.80
    2.23  -12.10   -6.68
   -4.94  -10.34   -4.87
   -6.66   -8.91    8.36
   -8.08   -8.65   -0.06
   -8.55  -11.68   -1.19
    2.31  -11.42    0.65
    0.67  -12.84   -7.34
   -8.84  -11.49    7.87
   -0.26  -13.56    5.83
    2.40  -11.44    6.33
    0.57  -11.91    7.03
   -8.48   -7.76   -7.59
   -4.10  -10.24   -6.46
   -6.78  -10.84   -8.60
   -7.13  -11.62    6.91
    0.30  -14.50   -0.70
    3.42  -13.36    5.31
    0.35  -14.50   -8.18
    3.28  -11.98   -5.98
   -0.40  -12.25    2.06
   -2.23  -12.41    1.64
  -12.74   -6.85    6.57
   -0.85  -13.64    9.50
   -8.33   -8.17    3.75
   -9.43  -11.01   -9.41
   -8.76   -7.78    9.17
   -4.62   -9.00   -5.72
   -9.43   -9.41    2.54
   -9.45   -9.74   -8.56
    2.55  -14.25    0.64
    4.28  -12.31   -1.66
    0.14  -10.60   -6.85
   -9.14  -11.26   -3.15
   -0.90  -12.64   -8.18
   -9.25   -8.61    1.27
   -0.68  -11.79   -6.25
   -8.01   -9.22    6.83
   -4.46  -12.96   -7.45
   -0.48  -11.12    5.12
   -7.44  -12.45    3.15
    0.35  -12.06    9.50
   -8.80  -10.21    9.39
    2.31  -14.31   -7.07
   -5.48  -10.90   -0.91
    3.04  -14.18   -6.03
  -10.68   -9.80    3.80
  -11.80   -8.10    1.96
   -3.18  -12.19   -7.16
   -5.48  -11.35    9.48
  -12.05   -7.51   -4.52
    4.36  -12.91   -2.46
   -3.57  -10.18   -3.83
    2.62  -14.26    5.42
   -1.84  -11.24   -2.34
    1.81  -12.55   -1.02
   -5.40  -10.55    4.91
    4.96  -12.37    7.93
   -1.85  -11.54   -9.49
  -11.80   -8.32   -5.04
   -9.35   -7.57    7.09
   -6.51  -11.31   -7.76
   -6.82   -9.38   -3.54
    0.36  -10.84   -3.04
   -1.86  -13.75    0.04
   -3.83  -12.01    5.71
   -4.02   -9.82    5.90
   -8.06   -9.62   -8.37
   -3.26  -11.00   -1.55
  -10.44   -8.52    5.54
   -1.52  -11.88   -8.00
  -10.75   -9.62   -5.71
   -6.79  -12.81    9.50
   -8.40  -10.63   -9.50
   -0.49  -14.49   -8.87
   -3.09  -13.30    6.73
   -0.07  -11.14   -7.67
   -7.17  -12.59    6.67
   -6.65   -8.95   -6.40
  -11.65   -8.63   -7.51
    1.10  -13.68    3.11
   -2.17  -14.33    3.47
   -1.12  -10.42    7.99
   -1.98  -13.44   -9.50
    3.75  -14.01   -7.11
   -3.04  -12.37    5.20
  -13.25   -5.41    6.48
    4.35  -13.82   -5.39
    4.78  -12.30   -3.14
    1.66  -12.21    7.56
    3.82  -12.31    7.05
    2.03  -12.49   -7.58
   -9.04   -9.46   -2.86
    0.16  -13.55    9.50
   -1.78  -12.66   -8.76
    1.69  -11.39   -1.89
  -12.58   -6.40    3.63
    0.25  -11.44   -6.32
   -2.21  -12.72    7.00
   -1.54  -13.46   -7.69
    3.60  -14.05   -1.16
    5.56  -12.58   -1.42
   -7.36  -11.70    1.84
   -5.46  -12.64    2.67
    1.01  -12.70   -6.09
    0.53  -14.49    3.16
   -5.13   -9.21    3.61
   -3.91  -12.80   -9.50
   -2.43  -11.45   -8.39
  -11.96   -8.07    7.07
    6.54  -12.94    2.40
   -9.22  -10.04   -9.49
   -6.87  -12.77    3.91
   -3.38  -11.15    9.50
   -0.22  -12.71    8.99
   -0.78  -10.99   -2.72
   -4.56  -12.89   -8.62
   -3.82  -12.09   -8.80
   -1.07  -10.52    5.66
  -13.34   -5.69    1.69
   -5.29   -9.59    0.94
   -2.11  -10.68   -9.00
   -4.14  -10.27    4.85
    0.00  -13.53   -6.30
   -2.93  -14.19   -2.66
   -5.08   -9.92   -7.03
   -2.84  -13.50   -5.69
   -3.65  -14.03    6.34
  -12.71   -6.97    8.34
    1.45  -14.43   -7.56
   -5.69  -10.35   -2.90
   -3.82  -10.14    1.97
   -2.82  -14.22    9.50
    1.37  -11.92   -8.07
   -7.80  -11.31   -9.04
    1.64  -14.05   -1.13
   -0.51  -10.85    1.31
   -2.84  -12.52   -9.50
   -7.58   -8.81   -7.01
   -7.81  -11.15   -7.12
   -0.74  -12.77    7.98
   -8.03  -11.22    7.14
   -9.56   -8.12    4.65
  -12.76   -6.84   -7.48
    2.52  -12.15    1.30
   -1.37  -11.13    4.49
    0.11  -11.10    4.31
  -10.98   -7.61   -5.79
   -1.06  -11.15    8.66
    2.98  -13.36   -1.78
  -12.99   -6.44    9.50
   -1.13  -11.94   -1.23
  -11.19   -7.67    7.63
  -13.47   -5.38   -9.22
   -8.10   -9.11    2.99
    3.31  -11.39    1.48
  -12.42   -6.03    7.06
    2.09  -13.42   -2.24
   -6.80  -11.21   -6.81
   -4.83   -8.49    9.50
    3.52  -14.07   -4.86
   -7.18   -8.38   -5.39
   -4.68  -12.33    6.38
   -6.44  -10.00    5.96
    1.99  -11.81   -3.59
   -8.78   -8.34   -1.13
   -5.78   -8.76    4.62
   -0.42  -12.97    3.59
   -2.33  -14.31   -8.36
  -10.56   -8.81   -0.85
    1.10  -10.78    7.71
   -6.02  -12.09    6.38
    6.73  -12.84   -3.54
   -6.32  -13.03   -3.46
  -10.56   -7.27    8.41
  -12.93   -6.56   -5.95
   -2.66  -12.58    6.10
   -6.59  -12.91   -0.16
   -1.95  -14.37   -2.81
   -5.53   -8.61   -8.32
   -7.57   -7.62   -7.18
   -4.66   -9.07   -8.86
   -2.68  -13.61   -0.52
    5.64  -12.66    6.28
   -0.86  -13.57   -6.96
    0.07  -12.10   -9.48
  -13.67   -4.50   -8.79
    1.22  -10.51   -1.99
    3.86  -11.40   -1.68
   -5.42  -13.45   -1.68
   -4.28  -13.85    2.58
   -2.57  -14.27    2.49
   -3.01   -9.17    7.56
    0.03  -11.42   -5.34
   -4.75  -12.79    4.66
   -8.82  -11.41   -0.26
   -8.10   -9.18   -2.28
    4.15  -12.22    2.28
    3.95  -12.24   -3.70
    4.09  -13.01    8.03
    1.37  -13.97   -3.87
  -11.64   -6.16    9.42
    0.41  -14.49    8.15
    3.56  -12.35    1.33
   -8.93  -11.42   -2.13
   -7.93  -12.13   -4.42
    0.92  -10.82   -7.69
   -3.35  -10.10    4.09
   -0.38  -12.71    6.35
   -4.08  -10.28   -9.50
   -2.72  -12.40   -8.51
  -11.43   -8.92    6.84
   -7.11  -12.64   -5.91
   -5.95  -11.87   -7.16
   -0.39  -13.70    6.82
    4.71  -13.71   -7.31
   -3.80  -11.21   -9.26
    5.10  -13.57   -2.34
    3.34  -14.07    4.61
   -4.89  -11.30   -5.15
  -12.30   -7.67    6.22
   -9.64   -7.87   -7.80
    6.00  -13.20    7.35
   -6.12  -12.30    7.45
    0.93  -13.58   -8.94
    3.25  -14.13    8.53
    2.40  -12.32    8.23
  -10.30  -10.18   -6.82
   -8.03   -8.44    9.02
   -2.89   -9.49    2.07
   -3.30  -14.12   -1.19
    0.61  -13.63    8.61
    5.28  -12.38   -4.08
  -10.79   -9.69   -3.19
   -8.43  -10.58    7.80
   -9.06   -9.54   -6.91
   -6.41   -7.89   -8.16
   -9.30   -8.22   -5.76
   -2.72  -12.95    9.50
   -7.03  -12.68   -9.13
    6.05  -13.18    4.62
   -6.56   -8.37    9.50
   -8.47  -11.77    4.15
    1.02  -12.71   -2.83
  -10.92   -6.30   -7.42
    2.34  -11.81   -5.66
   -0.23  -14.50   -5.30
    3.83  -13.24   -3.68
   -5.28  -11.74    6.98
   -0.46  -13.51   -7.95
   -6.53   -9.36   -9.50
   -7.61  -12.34   -1.07
   -8.84   -8.64    2.30
    1.34  -12.88   -5.13
   -7.38   -8.73   -3.01
   -1.13  -12.63    9.50
   -9.84   -8.04    7.83
   -9.96   -8.25   -9.50
  -11.06   -6.68    7.74
   -6.93  -10.52    8.50
   -6.16   -9.57    2.83
[...]
POINT_DATA 2000
SCALARS radius float
LOOKUP_TABLE default
  0.500000000000000     
  0.500000000000000     
  0.500000000000000     
  0.500000000000000     
  0.500000000000000     
  0.500000000000000     
  0.500000000000000     
  0.500000000000000     
  0.500000000000000     
  0.500000000000000     
  0.500000000000000     
  0.500000000000000     
  0.500000000000000     
  0.500000000000000     
  0.500000000000000     
  0.500000000000000     
  0.500000000000000     
  0.500000000000000     
  0.500000000000000     
  0.500000000000000     
  0.500000000000000     
  0.500000000000000     
  0.500000000000000     
  0.500000000000000     
  0.500000000000000     
  0.500000000000000     
  0.500000000000000     
  0.500000000000000     
  0.500000000000000     
  0.500000000000000     
  0.500000000000000     
  0.500000000000000     
  0.500000000000000     
  0.500000000000000     
  0.500000000000000     
  0.500000000000000     
  0.500000000000000     
  0.500000000000000     
  0.500000000000000     
  0.500000000000000     
  0.500000000000000     
  0.500000000000000     
  0.500000000000000     
  0.500000000000000     
  0.500000000000000     
  0.500000000000000     
  0.500000000000000     
  0.500000000000000     
  0.500000000000000     
  0.500000000000000     
  0.500000000000000     
  0.500000000000000     
  0.500000000000000     
  0.500000000000000     
  0.500000000000000     
  0.500000000000000     
  0.500000000000000     
  0.500000000000000     
  0.500000000000000     
  0.500000000000000     
  0.500000000000000     
  0.500000000000000     
  0.500000000000000     
  0.500000000000000     
  0.500000000000000     
  0.500000000000000     
  0.500000000000000     
  0.500000000000000     
  0.500000000000000     
  0.500000000000000     
  0.500000000000000     
  0.500000000000000     
  0.500000000000000     
  0.500000000000000     
  0.500000000000000     
  0.500000000000000     
  0.500000000000000     
  0.500000000000000     
  0.500000000000000     
  0.500000000000000     
  0.500000000000000     
  0.500000000000000     
  0.500000000000000     
  0.500000000000000     
  0.500000000000000     
  0.500000000000000     
  0.500000000000000     
  0.500000000000000     
  0.500000000000000     
  0.500000000000000     
  0.500000000000000     
  0.500000000000000     
  0.500000000000000     
  0.500000000000000     
  0.500000000000000     
  0.500000000000000     
  0.500000000000000     
  0.500000000000000     
  0.500000000000000     
  0.500000000000000     
  0.500000000000000     
  0.500000000000000     
  0.500000000000000     
  0.500000000000000     
  0.500000000000000     
  0.500000000000000     
  0.500000000000000     
  0.500000000000000     
  0.500000000000000     
  0.500000000000000     
  0.500000000000000     
  0.500000000000000     
  0.500000000000000     
  0.500000000000000     
  0.500000000000000     
  0.500000000000000     
  0.500000000000000     
  0.500000000000000     
  0.500000000000000     
  0.500000000000000     
  0.500000000000000     
  0.500000000000000     
  0.500000000000000     
  0.500000000000000     
  0.500000000000000     
  0.500000000000000     
  0.500000000000000     
  0.500000000000000     
  0.500000000000000     
  0.500000000000000     
  0.500000000000000     
  0.500000000000000     
  0.500000000000000     
  0.500000000000000     
  0.500000000000000     
  0.500000000000000     
  0.500000000000000     
  0.500000000000000     
  0.500000000000000     
  0.500000000000000     
  0.500000000000000     
  0.500000000000000     
  0.500000000000000     
  0.500000000000000     
  0.500000000000000     
  0.500000000000000     
  0.500000000000000     
  0.500000000000000     
  0.500000000000000     
  0.500000000000000     
  0.500000000000000     
  0.500000000000000     
  0.500000000000000     
  0.500000000000000     
  0.500000000000000     
  0.500000000000000     
  0.500000000000000     
  0.500000000000000     
  0.500000000000000     
  0.500000000000000     
  0.500000000000000     
  0.500000000000000     
  0.500000000000000     
  0.500000000000000     
  0.500000000000000     
  0.500000000000000     
  0.500000000000000     
  0.500000000000000     
  0.500000000000000     
  0.500000000000000     
  0.500000000000000     
  0.500000000000000     
  0.500000000000000     
  0.500000000000000     
  0.500000000000000     
  0.500000000000000     
  0.500000000000000     
  0.500000000000000     
  0.500000000000000     
  0.500000000000000     
  0.500000000000000     
  0.500000000000000     
  0.500000000000000     
  0.500000000000000     
  0.500000000000000     
  0.500000000000000     
  0.500000000000000     
  0.500000000000000     
  0.500000000000000     
  0.500000000000000     
  0.500000000000000     
  0.500000000000000     
  0.500000000000000     
  0.500000000000000     
  0.500000000000000     
  0.500000000000000     
  0.500000000000000     
  0.500000000000000     
  0.500000000000000     
  0.500000000000000     
  0.500000000000000     
  0.500000000000000     
  0.500000000000000     
  0.500000000000000     
  0.500000000000000     
  0.500000000000000     
  0.500000000000000     
  0.500000000000000     
  0.500000000000000     
  0.500000000000000     
  0.500000000000000     
  0.500000000000000     
  0.500000000000000     
  0.500000000000000     
  0.500000000000000     
  0.500000000000000     
  0.500000000000000     
  0.500000000000000     
  0.500000000000000     
  0.500000000000000     
  0.500000000000000     
  0.500000000000000     
  0.500000000000000     
  0.500000000000000     
  0.500000000000000     
  0.500000000000000     
  0.500000000000000     
  0.500000000000000     
  0.500000000000000     
  0.500000000000000     
  0.500000000000000     
  0.500000000000000     
  0.500000000000000     
  0.500000000000000     
  0.500000000000000     
  0.500000000000000     
  0.500000000000000     
  0.500000000000000     
  0.500000000000000     
  0.500000000000000     
  0.500000000000000     
  0.500000000000000     
  0.500000000000000     
  0.500000000000000     
  0.500000000000000     
  0.500000000000000     
  0.500000000000000     
  0.500000000000000     
  0.500000000000000     
  0.500000000000000     
  0.500000000000000     
  0.500000000000000     
  0.500000000000000     
  0.500000000000000     
  0.500000000000000     
  0.500000000000000     
  0.500000000000000     
  0.500000000000000     
  0.500000000000000     
  0.500000000000000     
  0.500000000000000     
  0.500000000000000     
  0.500000000000000     
  0.500000000000000     
  0.500000000000000     
  0.500000000000000     
  0.500000000000000     
  0.500000000000000     
  0.500000000000000     
  0.500000000000000     
  0.500000000000000     
  0.500000000000000     
  0.500000000000000     
  0.500000000000000     
  0.500000000000000     
  0.500000000000000     
  0.500000000000000     
  0.500000000000000     
  0.500000000000000     
  0.500000000000000     
  0.500000000000000     
  0.500000000000000     
  0.500000000000000     
  0.500000000000000     
  0.500000000000000     
  0.500000000000000     
  0.500000000000000     
  0.500000000000000     
  0.500000000000000     
  0.500000000000000     
  0.500000000000000     
  0.500000000000000     
  0.500000000000000     
  0.500000000000000     
  0.500000000000000     
  0.500000000000000     
  0.500000000000000     
  0.500000000000000     
  0.500000000000000     
  0.500000000000000     
  0.500000000000000     
  0.500000000000000     
  0.500000000000000     
  0.500000000000000     
  0.500000000000000     
  0.500000000000000     
  0.500000000000000     
  0.500000000000000     
  0.500000000000000     
  0.500000000000000     
  0.500000000000000     
  0.500000000000000     
  0.500000000000000     
  0.500000000000000     
  0.500000000000000     
  0.500000000000000     
  0.500000000000000     
  0.500000000000000     
  0.500000000000000     
  0.500000000000000     
  0.500000000000000     
  0.500000000000000     
  0.500000000000000     
  0.500000000000000     
  0.500000000000000     
  0.500000000000000     
  0.500000000000000     
  0.500000000000000     
  0.500000000000000     
  0.500000000000000     
  0.500000000000000     
  0.500000000000000     
  0.500000000000000     
  0.500000000000000     
  0.500000000000000     
  0.500000000000000     
  0.500000000000000     
  0.500000000000000     
  0.500000000000000     
  0.500000000000000     
  0.500000000000000     
  0.500000000000000     
  0.500000000000000     
  0.500000000000000     
  0.500000000000000     
  0.500000000000000     
  0.500000000000000     
  0.500000000000000     
  0.500000000000000     
  0.500000000000000     
  0.500000000000000     
  0.500000000000000     
  0.500000000000000     
  0.500000000000000     
  0.500000000000000     
  0.500000000000000     
  0.500000000000000     
  0.500000000000000     
  0.500000000000000     
  0.500000000000000     
  0.500000000000000     
  0.500000000000000     
  0.500000000000000     
  0.500000000000000     
  0.500000000000000     
  0.500000000000000     
  0.500000000000000     
  0.500000000000000     
  0.500000000000000     
  0.500000000000000     
  0.500000000000000     
  0.500000000000000     
  0.500000000000000     
  0.500000000000000     
  0.500000000000000     
  0.500000000000000     
  0.500000000000000     
  0.500000000000000     
  0.500000000000000     
  0.500000000000000     
  0.500000000000000     
  0.500000000000000     
  0.500000000000000     
  0.500000000000000     
  0.500000000000000     
  0.500000000000000     
  0.500000000000000     
  0.500000000000000     
  0.500000000000000     
  0.500000000000000     
  0.500000000000000     
  0.500000000000000     
  0.500000000000000     
  0.500000000000000     
  0.500000000000000     
  0.500000000000000     
  0.500000000000000     
  0.500000000000000     
  0.500000000000000     
  0.500000000000000     
  0.500000000000000     
  0.500000000000000     
  0.500000000000000     
  0.500000000000000     
  0.500000000000000     
  0.500000000000000     
  0.500000000000000     
  0.500000000000000     
  0.500000000000000     
  0.500000000000000     
  0.500000000000000     
  0.500000000000000     
  0.500000000000000     
  0.500000000000000     
  0.500000000000000     
  0.500000000000000     
  0.500000000000000     
  0.500000000000000     
  0.500000000000000     
  0.500000000000000     
  0.500000000000000     
  0.500000000000000     
  0.500000000000000     
  0.500000000000000     
  0.500000000000000     
  0.500000000000000     
  0.500000000000000     
  0.500000000000000     
  0.500000000000000     
  0.500000000000000     
  0.500000000000000     
  0.500000000000000     
  0.500000000000000     
  0.500000000000000     
  0.500000000000000     
  0.500000000000000     
  0.500000000000000     
  0.500000000000000     
  0.500000000000000     
  0.500000000000000     
  0.500000000000000     
  0.500000000000000     
  0.500000000000000     
  0.500000000000000     
  0.500000000000000     
  0.500000000000000     
  0.500000000000000     
  0.500000000000000     
  0.500000000000000     
  0.500000000000000     
  0.500000000000000     
  0.500000000000000     
  0.500000000000000     
  0.500000000000000     
  0.500000000000000     
  0.500000000000000     
  0.500000000000000     
  0.500000000000000     
  0.500000000000000     
  0.500000000000000     
  0.500000000000000     
  0.500000000000000     
  0.500000000000000     
  0.500000000000000     
  0.500000000000000     
  0.500000000000000     
  0.500000000000000     
  0.500000000000000     
  0.500000000000000     
  0.500000000000000     
  0.500000000000000     
  0.500000000000000     
  0.500000000000000     
  0.500000000000000     
  0.500000000000000     
  0.500000000000000     
  0.500000000000000     
  0.500000000000000     
  0.500000000000000     
  0.500000000000000     
  0.500000000000000     
  0.500000000000000     
  0.500000000000000     
  0.500000000000000     
  0.500000000000000     
  0.500000000000000     
  0.500000000000000     
  0.500000000000000     
  0.500000000000000     
  0.500000000000000     
  0.500000000000000     
  0.500000000000000     
  0.500000000000000     
  0.500000000000000     
  0.500000000000000     
  0.500000000000000     
  0.500000000000000     
  0.500000000000000     
  0.500000000000000     
  0.500000000000000     
  0.500000000000000     
  0.500000000000000     
  0.500000000000000     
  0.500000000000000     
  0.500000000000000     
  0.500000000000000     
  0.500000000000000     
  0.500000000000000     
  0.500000000000000     
  0.500000000000000     
  0.500000000000000     
  0.500000000000000     
  0.500000000000000     
  0.500000000000000     
  0.500000000000000     
  0.500000000000000     
  0.500000000000000     
  0.500000000000000     
  0.500000000000000     
  0.500000000000000     
  0.500000000000000     
  0.500000000000000     
  0.500000000000000     
  0.500000000000000     
  0.500000000000000     
  0.500000000000000     
  0.500000000000000     
  0.500000000000000     
  0.500000000000000     
  0.500000000000000     
  0.500000000000000     
  0.500000000000000     
  0.500000000000000     
  0.500000000000000     
  0.500000000000000     
  0.500000000000000     
  0.500000000000000     
  0.500000000000000     
  0.500000000000000     
  0.500000000000000     
  0.500000000000000     
  0.500000000000000     
  0.500000000000000     
  0.500000000000000     
  0.500000000000000     
  0.500000000000000     
  0.500000000000000     
  0.500000000000000     
  0.500000000000000     
  0.500000000000000     
  0.500000000000000     
  0.500000000000000     
  0.500000000000000     
  0.500000000000000     
  0.500000000000000     
  0.500000000000000     
  0.500000000000000     
  0.500000000000000     
  0.500000000000000     
  0.500000000000000     
  0.500000000000000     
  0.500000000000000     
  0.500000000000000     
  0.500000000000000     
  0.500000000000000     
  0.500000000000000     
  0.500000000000000     
  0.500000000000000     
  0.500000000000000     
  0.500000000000000     
  0.500000000000000     
  0.500000000000000     
  0.500000000000000     
  0.500000000000000     
  0.500000000000000     
  0.500000000000000     
  0.500000000000000     
  0.500000000000000     
  0.500000000000000     
  0.500000000000000     
  0.500000000000000     
  0.500000000000000     
  0.500000000000000     
  0.500000000000000     
  0.500000000000000     
  0.500000000000000     
  0.500000000000000     
  0.500000000000000     
  0.500000000000000     
  0.500000000000000     
  0.500000000000000     
  0.500000000000000     
  0.500000000000000     
  0.500000000000000     
  0.500000000000000     
  0.500000000000000     
  0.500000000000000     
  0.500000000000000     
  0.500000000000000     
  0.500000000000000     
  0.500000000000000     
  0.500000000000000     
  0.500000000000000     
  0.500000000000000     
  0.500000000000000     
  0.500000000000000     
  0.500000000000000     
  0.500000000000000     
  0.500000000000000     
  0.500000000000000     
  0.500000000000000     
  0.500000000000000     
  0.500000000000000     
  0.500000000000000     
  0.500000000000000     
  0.500000000000000     
  0.500000000000000     
  0.500000000000000     
  0.500000000000000     
  0.500000000000000     
  0.500000000000000     
  0.500000000000000     
  0.500000000000000     
  0.500000000000000     
  0.500000000000000     
  0.500000000000000     
  0.500000000000000     
  0.500000000000000     
  0.500000000000000     
  0.500000000000000     
  0.500000000000000     
  0.500000000000000     
  0.500000000000000     
  0.500000000000000     
  0.500000000000000     
  0.500000000000000     
  0.500000000000000     
  0.500000000000000     
  0.500000000000000     
  0.500000000000000     
  0.500000000000000     
  0.500000000000000     
  0.500000000000000     
  0.500000000000000     
  0.500000000000000     
  0.500000000000000     
  0.500000000000000     
  0.500000000000000     
  0.500000000000000     
  0.500000000000000     
  0.500000000000000     
  0.500000000000000     
  0.500000000000000     
  0.500000000000000     
  0.500000000000000     
  0.500000000000000     
  0.500000000000000     
  0.500000000000000     
  0.500000000000000     
  0.500000000000000     
  0.500000000000000     
  0.500000000000000     
  0.500000000000000     
  0.500000000000000     
  0.500000000000000     
  0.500000000000000     
  0.500000000000000     
  0.500000000000000     
  0.500000000000000     
  0.500000000000000     
  0.500000000000000     
  0.500000000000000     
  0.500000000000000     
  0.500000000000000     
  0.500000000000000     
  0.500000000000000     
  0.500000000000000     
  0.500000000000000     
  0.500000000000000     
  0.500000000000000     
  0.500000000000000     
  0.500000000000000     
  0.500000000000000     
  0.500000000000000     
  0.500000000000000     
  0.500000000000000     
  0.500000000000000     
  0.500000000000000     
  0.500000000000000     
  0.500000000000000     
  0.500000000000000     
  0.500000000000000     
  0.500000000000000     
  0.500000000000000     
  0.500000000000000     
  0.500000000000000     
  0.500000000000000     
  0.500000000000000     
  0.500000000000000     
  0.500000000000000     
  0.500000000000000     
  0.500000000000000     
  0.500000000000000     
  0.500000000000000     
  0.500000000000000     
  0.500000000000000     
  0.500000000000000     
  0.500000000000000     
  0.500000000000000     
  0.500000000000000     
  0.500000000000000     
  0.500000000000000     
  0.500000000000000     
  0.500000000000000     
  0.500000000000000     
  0.500000000000000     
  0.500000000000000     
  0.500000000000000     
  0.500000000000000     
  0.500000000000000     
  0.500000000000000     
  0.500000000000000     
  0.500000000000000     
  0.500000000000000     
  0.500000000000000     
  0.500000000000000     
  0.500000000000000     
  0.500000000000000     
  0.500000000000000     
  0.500000000000000     
  0.500000000000000     
  0.500000000000000     
  0.500000000000000     
  0.500000000000000     
  0.500000000000000     
  0.500000000000000     
  0.500000000000000     
  0.500000000000000     
  0.500000000000000     
  0.500000000000000     
  0.500000000000000     
  0.500000000000000     
  0.500000000000000     
  0.500000000000000     
  0.500000000000000     
  0.500000000000000     
  0.500000000000000     
  0.500000000000000     
  0.500000000000000     
  0.500000000000000     
  0.500000000000000     
  0.500000000000000     
  0.500000000000000     
  0.500000000000000     
  0.500000000000000     
  0.500000000000000     
  0.500000000000000     
  0.500000000000000     
  0.500000000000000     
  0.500000000000000     
  0.500000000000000     
  0.500000000000000     
  0.500000000000000     
  0.500000000000000     
  0.500000000000000     
  0.500000000000000     
  0.500000000000000     
  0.500000000000000     
  0.500000000000000     
  0.500000000000000     
  0.500000000000000     
  0.500000000000000     
  0.500000000000000     
  0.500000000000000     
  0.500000000000000     
  0.500000000000000     
  0.500000000000000     
  0.500000000000000     
  0.500000000000000     
  0.500000000000000     
  0.500000000000000     
  0.500000000000000     
  0.500000000000000     
  0.500000000000000     
  0.500000000000000     
  0.500000000000000     
  0.500000000000000     
  0.500000000000000     
  0.500000000000000     
  0.500000000000000     
  0.500000000000000     
  0.500000000000000     
  0.500000000000000     
  0.500000000000000     
  0.500000000000000     
  0.500000000000000     
  0.500000000000000     