# vtk DataFile Version 5.1
Data.vtk
ASCII
DATASET UNSTRUCTURED_GRID
 
POINTS 2000 float
   -8.16  -10.83   -0.57
    5.77  -12.23    0.72
   -8.60  -10.34    4.02
   -4.51  -11.75   -1.58
   -0.11  -11.32    5.66
   -8.61   -9.69   -8.19
    3.33  -13.35   -8.86
   -6.87  -10.92   -7.18
    6.55  -12.52   -4.79
    0.30  -13.76    0.04
   -2.32  -11.28   -1.35
  -12.43   -7.46   -8.28
   -4.13  -12.89   -0.65
   -7.66  -11.37    1.89
    0.50  -12.00   -1.38
    3.96  -12.79    1.16
    1.39  -13.97    5.50
   -8.40  -10.87    7.11
   -0.46  -14.49    8.14
   -6.35  -11.60   -3.67
  -10.68   -9.81   -1.28
   -4.11  -13.90    6.48
   -1.12  -11.98   -8.53
   -6.36  -13.03   -6.67
   -2.27  -13.49    1.09
    4.81  -11.45   -3.90
  -12.99   -6.42    9.18
   -2.41  -11.59    8.09
    1.13  -10.94    0.49
   -5.42   -9.46    2.51
  -11.09   -9.33   -2.96
    5.74  -12.55   -1.21
    4.33  -12.11    5.01
   -4.43  -13.03   -2.77
   -6.85  -10.45   -3.99
   -6.34  -12.23    7.52
   -3.15  -11.03    7.01
   -3.64  -10.93    5.21
    4.78  -12.26    0.61
   -7.04  -10.91    2.58
    4.17  -13.89    2.73
   -9.88   -8.16   -1.83
   -1.72  -11.29   -4.86
   -9.12  -10.12    1.36
   -4.80   -9.81   -5.32
    3.33  -12.48    7.50
    4.00  -13.94    3.83
   -2.51  -12.66   -5.02
    3.12  -14.16    6.12
   -5.94  -11.25   -9.50
   -6.03  -12.38   -7.83
   -4.70   -9.87    9.11
   -0.03  -12.19    6.15
   -1.46  -13.49    2.56
    2.03  -12.13    4.05
    7.21  -12.58    0.53
    5.15  -11.83   -4.77
   -0.59  -10.29    2.29
   -7.80   -8.82   -0.53
   -0.61  -10.20   -5.34
    0.75  -10.74   -0.76
    4.98  -12.20   -3.25
   -0.06  -12.82    6.92
   -4.88  -13.65    3.61
   -5.82  -13.28    2.28
   -0.59  -13.51    0.43
   -8.69   -9.24   -0.68
   -1.30  -13.72    4.32
   -6.82  -11.91   -0.60
   -5.05  -12.73   -5.51
   -1.36  -10.15    3.52
   -8.72  -11.58   -7.65
   -7.91  -11.14   -3.10
    5.08  -12.84    3.73
    5.73  -13.32    5.11
  -10.35   -8.69   -5.07
    7.34  -12.50    6.73
    3.72  -14.01   -8.21
   -0.48  -13.34    2.41
    6.24  -13.09   -1.88
    4.13  -12.85    9.50
    4.65  -12.98    6.31
   -2.95  -13.23   -0.42
    4.32  -13.19   -8.90
   -9.37  -11.06   -8.20
   -1.51  -12.98   -6.41
   -8.43   -8.97    0.25
    6.60  -12.91   -5.71
    2.68  -11.76    1.15
    0.76  -13.77    8.21
   -9.09  -10.33    0.30
    0.35  -12.77   -8.62
   -3.37  -10.03   -1.56
   -4.64   -9.70    4.28
   -4.79  -13.69    4.74
    5.41  -12.49   -2.15
   -1.06  -12.03    1.44
    0.84  -11.61    3.63
   -4.16  -13.88   -0.72
   -0.11  -10.10   -1.64
   -9.99   -9.09    3.41
    6.95  -12.73   -3.84
    3.65  -11.85    1.35
    5.17  -12.53    5.37
   -0.07  -11.38    1.31
    4.10  -13.00   -7.94
  -10.47   -8.95    6.79
   -0.56  -12.16   -3.20
  -10.44   -8.45    5.92
   -1.13  -12.62    2.93
   -4.87   -9.81    5.51
    0.98  -12.87   -1.29
    0.98  -14.47   -3.65
    3.15  -13.29   -7.84
   -3.93  -13.95    3.62
    0.37  -13.79   -8.80
   -6.59   -8.98   -1.16
   -1.42  -10.85   -2.88
   -5.93  -13.23    6.97
   -9.61   -7.95    7.26
    4.69  -13.72    8.33
   -6.10   -8.93    7.22
   -0.68  -12.61    7.67
    5.24  -12.11    3.04
    0.18  -10.32    0.31
    5.61  -12.78   -5.46
    1.23  -14.45   -7.54
   -8.24   -9.96   -0.07
   -1.53  -14.42   -8.89
    5.74  -13.31   -8.90
   -5.49  -11.96   -4.03
    0.85  -13.09    2.04
    1.92  -12.15    0.10
    6.41  -11.44    0.79
   -6.88   -8.74   -7.43
   -6.25  -10.44    7.40
  -10.78   -9.63   -6.43
   -9.24  -11.18   -4.98
    0.59  -11.56    8.05
   -7.96  -12.12    6.01
   -2.74  -13.24   -3.13
  -10.40   -9.29    2.01
   -0.67  -12.09   -2.21
   -5.79   -9.63    5.98
   -2.08  -11.06    3.65
   -9.01  -10.11    7.35
   -4.86  -10.85    5.76
    5.28  -11.88   -5.76
   -6.61  -12.14   -7.05
   -6.58  -11.07   -8.14
   -1.62  -13.62    5.88
   -1.35  -10.17   -0.25
   -1.12  -11.75    3.43
    4.29  -12.45   -3.94
   -4.49  -11.84   -4.06
  -10.01   -8.06    2.33
   -6.00  -10.64    2.63
    6.38  -12.25    6.84
   -7.17   -8.57    6.29
    2.09  -14.35    3.51
    0.49  -12.47   -4.16
    5.99  -12.70    8.05
   -0.30  -13.38   -7.74
    2.02  -13.94    0.96
   -0.47  -11.75   -9.36
    2.62  -13.92    1.78
   -7.21  -10.44   -1.18
   -6.01  -13.20   -8.40
    3.40  -12.96   -0.83
   -0.19  -11.45   -5.37
   -3.61  -14.04   -1.53
   -2.85  -10.68   -7.27
    1.77  -12.55    9.50
    1.39  -11.02   -5.22
    1.44  -12.06    2.96
    6.49  -12.09    0.03
   -4.62  -10.62    8.46
   -5.54   -9.75    7.13
    5.93  -12.41   -3.53
   -3.01  -12.35    0.93
  -10.36  -10.14   -5.67
    5.24  -13.52    1.53
    2.29  -14.32   -0.97
   -5.83  -10.45   -8.91
   -6.69  -10.94    9.47
   -2.05  -14.35   -4.52
   -1.23  -11.26   -1.13
  -11.45   -8.90   -6.28
  -10.83   -7.59    5.47
   -9.85   -9.55   -1.90
   -0.97  -12.85   -1.44
   -9.64   -9.50    6.88
   -2.63  -14.26    8.52
  -11.94   -7.58   -9.15
    2.07  -12.07   -5.14
   -3.93  -13.18    7.81
   -2.34  -10.44   -8.13
   -7.14  -11.55   -6.44
   -6.30  -10.11   -0.58
    1.41  -14.43   -2.75
    0.33  -13.63    6.48
    6.22  -13.10    9.47
   -2.12  -13.67   -3.79
    0.47  -12.89   -0.43
   -9.43   -9.03    1.97
   -3.65  -10.10   -3.16
    5.86  -13.26   -7.90
   -4.62  -11.00    7.53
    5.14  -12.67   -7.35
   -0.55  -13.18   -8.69
    2.49  -12.04    6.00
   -4.34  -10.62   -8.73
    6.95  -12.72    3.46
   -6.12  -11.22   -1.87
   -1.54  -10.30   -4.88
    2.99  -14.19    0.87
    6.10  -13.15    0.54
   -4.12  -11.04    4.14
   -2.80  -10.35   -6.33
   -5.47   -9.62   -0.83
    4.71  -12.00    6.09
   -1.37  -13.59    7.35
   -3.69  -10.38   -6.83
    2.72  -12.57   -1.47
   -3.17  -13.38    8.42
    0.50  -11.81    9.50
   -3.76   -9.83   -4.18
   -0.98  -14.47   -3.19
   -3.50   -9.38    7.17
   -2.88  -12.03   -9.28
   -9.79   -9.40   -4.63
   -1.20  -12.91    4.90
   -6.31  -12.05   -6.10
    1.86  -12.82    5.85
   -8.58  -10.36   -6.09
   -8.97   -8.73   -1.49
    0.94  -10.18    1.12
    7.13  -12.63    1.65
   -6.22  -12.23    3.96
   -3.99  -11.38   -6.15
    1.15  -12.56    3.85
    4.83  -12.76    8.79
   -7.22   -9.63   -9.50
   -2.10  -12.91   -9.50
    1.21  -13.03    2.97
   -2.45  -11.03    0.63
   -1.15  -12.67   -9.30
    5.33  -13.48   -2.03
   -4.54   -9.18    7.29
   -6.30  -10.58    8.61
   -0.41  -12.14   -0.71
   -9.65   -8.04   -8.20
   -1.09  -11.17   -7.54
  -10.14  -10.37    6.87
    3.82  -13.99    6.81
   -2.12  -13.08    4.39
   -4.15   -9.39   -8.02
   -7.13  -12.63    4.28
   -1.18  -12.11   -5.06
   -4.47  -13.02   -1.77
    5.00  -13.61   -9.50
   -0.27  -10.79   -6.54
   -4.42   -9.54    2.49
    2.47  -10.49    3.06
   -6.26   -8.83   -5.49
   -8.07  -12.05   -5.86
   -5.63  -13.36    5.18
    5.90  -11.54    2.45
   -5.27  -11.12   -8.43
   -3.67  -11.14   -8.08
   -3.35  -13.10   -1.33
    0.66  -11.79    0.70
   -4.91  -13.64   -7.93
   -0.43  -14.49   -8.79
    5.24  -12.64   -9.45
   -4.90  -12.32    7.14
   -0.93  -13.47    3.41
    1.82  -13.65    8.56
    1.49  -13.49   -7.35
   -4.87  -10.42   -0.71
   -4.57  -10.51    4.86
   -5.02  -13.60    8.46
   -3.18  -13.18   -5.55
    0.09  -10.70    9.47
   -2.44  -10.18    0.10
    7.64  -12.33    4.75
    2.41  -12.74   -0.54
    2.14  -13.00    7.85
    5.06  -12.67   -6.35
    3.30  -13.65    5.24
   -6.05  -11.41    3.31
    0.59  -10.58    5.41
    2.38  -11.71   -2.29
    2.59  -13.06   -6.10
    3.83  -13.45    8.76
   -6.01  -12.02   -1.17
  -10.06  -10.43   -7.85
    2.20  -13.50    6.98
   -7.64  -11.34    5.48
  -11.23   -9.17   -7.21
   -3.45  -11.61    0.43
   -7.88  -12.16    7.01
    2.35  -13.07    2.32
    4.76  -12.45   -1.38
    1.87  -14.38    0.02
   -5.86  -11.48    8.55
    4.29  -13.04    5.37
   -8.09  -12.04   -6.86
    0.41  -11.90   -2.37
   -2.16  -10.42    7.41
   -1.20  -13.17   -7.36
    2.21  -13.74    6.02
    5.55  -12.45   -0.23
   -3.83   -9.79    0.13
    0.90  -12.73   -7.77
    4.39  -13.82   -3.94
   -1.89  -11.99   -9.17
    4.27  -13.86   -2.55
   -4.93   -9.50    1.63
   -2.07  -11.30   -7.43
   -3.09  -11.65   -7.36
    5.23  -12.66   -4.20
   -3.51  -12.59    0.11
   -3.85  -12.69   -3.73
    3.33  -12.14   -3.97
    3.85  -13.98   -1.19
   -1.72  -11.91    2.54
    6.23  -13.09    5.99
   -4.95  -11.40   -5.67
   -5.11  -11.10    2.59
    4.44  -12.32   -2.32
   -6.44  -11.04   -0.94
  -11.88   -8.26   -0.00
   -0.00  -13.04   -1.30
   -2.85  -12.26    8.69
   -3.58  -10.41   -0.62
    1.57  -11.63    6.05
   -8.44  -10.15    2.86
   -1.93  -10.98   -0.22
    0.79  -14.48   -1.63
    3.14  -12.06   -5.09
    3.28  -14.12   -9.50
    0.31  -14.50    5.96
   -0.11  -11.57    3.99
    0.76  -13.07   -9.50
   -0.91  -11.64   -6.68
    4.25  -12.75    7.19
    3.91  -11.44   -0.73
   -2.84  -12.35   -3.59
   -9.94   -9.31    5.94
   -7.65   -9.40   -3.53
   -8.22   -9.75   -9.50
   -7.86   -9.11   -1.54
   -6.64   -9.31    2.56
   -0.12  -12.85   -5.41
    5.63  -12.37    4.49
    2.55  -14.27   -3.28
   -5.82  -12.61    9.10
    1.92  -11.32    4.63
   -5.80   -9.70   -5.33
   -2.04  -12.58    9.49
   -7.66  -10.70    9.50
    3.53  -12.95   -5.29
  -12.55   -7.26    9.49
   -3.15  -14.15    9.50
    4.61  -11.56    1.31
   -8.20   -8.65    6.52
   -2.84  -13.29   -7.41
    2.01  -11.42   -5.90
    5.57  -11.68    6.96
   -4.48  -13.09   -6.67
   -4.75   -9.72   -8.82
   -0.01  -14.50   -3.83
   -9.82   -9.35    8.62
    1.40  -10.83   -1.51
   -8.67   -9.17    2.89
    2.20  -14.10    4.55
    6.81  -12.80   -2.86
    1.28  -12.91   -4.90
   -8.06   -9.96   -7.26
   -2.53  -12.71   -8.62
    8.08  -12.04   -2.70
    2.63  -13.41   -2.79
   -0.40  -13.86    7.34
   -0.25  -11.29   -2.82
   -2.86  -10.94   -9.00
    2.21  -13.35   -1.88
   -5.90  -13.25   -0.48
    1.19  -12.87   -3.58
    4.40  -12.20   -8.93
   -8.74  -11.57    8.69
   -4.76  -13.70    5.74
    4.50  -12.79   -5.54
    4.19  -13.88    4.84
   -0.78  -11.67    6.57
   -1.52  -14.42    3.64
[...]
POINT_DATA 2000
SCALARS radius float
LOOKUP_TABLE default
  0.500000000000000     
  0.500000000000000     
  0.500000000000000     
  0.500000000000000     
  0.500000000000000     
  0.500000000000000     
  0.500000000000000     
  0.500000000000000     
  0.500000000000000     
  0.500000000000000     
  0.500000000000000     
  0.500000000000000     
  0.500000000000000     
  0.500000000000000     
  0.500000000000000     
  0.500000000000000     
  0.500000000000000     
  0.500000000000000     
  0.500000000000000     
  0.500000000000000     
  0.500000000000000     
  0.500000000000000     
  0.500000000000000     
  0.500000000000000     
  0.500000000000000     
  0.500000000000000     
  0.500000000000000     
  0.500000000000000     
  0.500000000000000     
  0.500000000000000     
  0.500000000000000     
  0.500000000000000     
  0.500000000000000     
  0.500000000000000     
  0.500000000000000     
  0.500000000000000     
  0.500000000000000     
  0.500000000000000     
  0.500000000000000     
  0.500000000000000     
  0.500000000000000     
  0.500000000000000     
  0.500000000000000     
  0.500000000000000     
  0.500000000000000     
  0.500000000000000     
  0.500000000000000     
  0.500000000000000     
  0.500000000000000     
  0.500000000000000     
  0.500000000000000     
  0.500000000000000     
  0.500000000000000     
  0.500000000000000     
  0.500000000000000     
  0.500000000000000     
  0.500000000000000     
  0.500000000000000     
  0.500000000000000     
  0.500000000000000     
  0.500000000000000     
  0.500000000000000     
  0.500000000000000     
  0.500000000000000     
  0.500000000000000     
  0.500000000000000     
  0.500000000000000     
  0.500000000000000     
  0.500000000000000     
  0.500000000000000     
  0.500000000000000     
  0.500000000000000     
  0.500000000000000     
  0.500000000000000     
  0.500000000000000     
  0.500000000000000     
  0.500000000000000     
  0.500000000000000     
  0.500000000000000     
  0.500000000000000     
  0.500000000000000     
  0.500000000000000     
  0.500000000000000     
  0.500000000000000     
  0.500000000000000     
  0.500000000000000     
  0.500000000000000     
  0.500000000000000     
  0.500000000000000     
  0.500000000000000     
  0.500000000000000     
  0.500000000000000     
  0.500000000000000     
  0.500000000000000     
  0.500000000000000     
  0.500000000000000     
  0.500000000000000     
  0.500000000000000     
  0.500000000000000     
  0.500000000000000     
  0.500000000000000     
  0.500000000000000     
  0.500000000000000     
  0.500000000000000     
  0.500000000000000     
  0.500000000000000     
  0.500000000000000     
  0.500000000000000     
  0.500000000000000     
  0.500000000000000     
  0.500000000000000     
  0.500000000000000     
  0.500000000000000     
  0.500000000000000     
  0.500000000000000     
  0.500000000000000     
  0.500000000000000     
  0.500000000000000     
  0.500000000000000     
  0.500000000000000     
  0.500000000000000     
  0.500000000000000     
  0.500000000000000     
  0.500000000000000     
  0.500000000000000     
  0.500000000000000     
  0.500000000000000     
  0.500000000000000     
  0.500000000000000     
  0.500000000000000     
  0.500000000000000     
  0.500000000000000     
  0.500000000000000     
  0.500000000000000     
  0.500000000000000     
  0.500000000000000     
  0.500000000000000     
  0.500000000000000     
  0.500000000000000     
  0.500000000000000     
  0.500000000000000     
  0.500000000000000     
  0.500000000000000     
  0.500000000000000     
  0.500000000000000     
  0.500000000000000     
  0.500000000000000     
  0.500000000000000     
  0.500000000000000     
  0.500000000000000     
  0.500000000000000     
  0.500000000000000     
  0.500000000000000     
  0.500000000000000     
  0.500000000000000     
  0.500000000000000     
  0.500000000000000     
  0.500000000000000     
  0.500000000000000     
  0.500000000000000     
  0.500000000000000     
  0.500000000000000     
  0.500000000000000     
  0.500000000000000     
  0.500000000000000     
  0.500000000000000     
  0.500000000000000     
  0.500000000000000     
  0.500000000000000     
  0.500000000000000     
  0.500000000000000     
  0.500000000000000     
  0.500000000000000     
  0.500000000000000     
  0.500000000000000     
  0.500000000000000     
  0.500000000000000     
  0.500000000000000     
  0.500000000000000     
  0.500000000000000     
  0.500000000000000     
  0.500000000000000     
  0.500000000000000     
  0.500000000000000     
  0.500000000000000     
  0.500000000000000     
  0.500000000000000     
  0.500000000000000     
  0.500000000000000     
  0.500000000000000     
  0.500000000000000     
  0.500000000000000     
  0.500000000000000     
  0.500000000000000     
  0.500000000000000     
  0.500000000000000     
  0.500000000000000     
  0.500000000000000     
  0.500000000000000     
  0.500000000000000     
  0.500000000000000     
  0.500000000000000     
  0.500000000000000     
  0.500000000000000     
  0.500000000000000     
  0.500000000000000     
  0.500000000000000     
  0.500000000000000     
  0.500000000000000     
  0.500000000000000     
  0.500000000000000     
  0.500000000000000     
  0.500000000000000     
  0.500000000000000     
  0.500000000000000     
  0.500000000000000     
  0.500000000000000     
  0.500000000000000     
  0.500000000000000     
  0.500000000000000     
  0.500000000000000     
  0.500000000000000     
  0.500000000000000     
  0.500000000000000     
  0.500000000000000     
  0.500000000000000     
  0.500000000000000     
  0.500000000000000     
  0.500000000000000     
  0.500000000000000     
  0.500000000000000     
  0.500000000000000     
  0.500000000000000     
  0.500000000000000     
  0.500000000000000     
  0.500000000000000     
  0.500000000000000     
  0.500000000000000     
  0.500000000000000     
  0.500000000000000     
  0.500000000000000     
  0.500000000000000     
  0.500000000000000     
  0.500000000000000     
  0.500000000000000     
  0.500000000000000     
  0.500000000000000     
  0.500000000000000     
  0.500000000000000     
  0.500000000000000     
  0.500000000000000     
  0.500000000000000     
  0.500000000000000     
  0.500000000000000     
  0.500000000000000     
  0.500000000000000     
  0.500000000000000     
  0.500000000000000     
  0.500000000000000     
  0.500000000000000     
  0.500000000000000     
  0.500000000000000     
  0.500000000000000     
  0.500000000000000     
  0.500000000000000     
  0.500000000000000     
  0.500000000000000     
  0.500000000000000     
  0.500000000000000     
  0.500000000000000     
  0.500000000000000     
  0.500000000000000     
  0.500000000000000     
  0.500000000000000     
  0.500000000000000     
  0.500000000000000     
  0.500000000000000     
  0.500000000000000     
  0.500000000000000     
  0.500000000000000     
  0.500000000000000     
  0.500000000000000     
  0.500000000000000     
  0.500000000000000     
  0.500000000000000     
  0.500000000000000     
  0.500000000000000     
  0.500000000000000     
  0.500000000000000     
  0.500000000000000     
  0.500000000000000     
  0.500000000000000     
  0.500000000000000     
  0.500000000000000     
  0.500000000000000     
  0.500000000000000     
  0.500000000000000     
  0.500000000000000     
  0.500000000000000     
  0.500000000000000     
  0.500000000000000     
  0.500000000000000     
  0.500000000000000     
  0.500000000000000     
  0.500000000000000     
  0.500000000000000     
  0.500000000000000     
  0.500000000000000     
  0.500000000000000     
  0.500000000000000     
  0.500000000000000     
  0.500000000000000     
  0.500000000000000     
  0.500000000000000     
  0.500000000000000     
  0.500000000000000     
  0.500000000000000     
  0.500000000000000     
  0.500000000000000     
  0.500000000000000     
  0.500000000000000     
  0.500000000000000     
  0.500000000000000     
  0.500000000000000     
  0.500000000000000     
  0.500000000000000     
  0.500000000000000     
  0.500000000000000     
  0.500000000000000     
  0.500000000000000     
  0.500000000000000     
  0.500000000000000     
  0.500000000000000     
  0.500000000000000     
  0.500000000000000     
  0.500000000000000     
  0.500000000000000     
  0.500000000000000     
  0.500000000000000     
  0.500000000000000     
  0.500000000000000     
  0.500000000000000     
  0.500000000000000     
  0.500000000000000     
  0.500000000000000     
  0.500000000000000     
  0.500000000000000     
  0.500000000000000     
  0.500000000000000     
  0.500000000000000     
  0.500000000000000     
  0.500000000000000     
  0.500000000000000     
  0.500000000000000     
  0.500000000000000     
  0.500000000000000     
  0.500000000000000     
  0.500000000000000     
  0.500000000000000     
  0.500000000000000     
  0.500000000000000     
  0.500000000000000     
  0.500000000000000     
  0.500000000000000     
  0.500000000000000     
  0.500000000000000     
  0.500000000000000     
  0.500000000000000     
  0.500000000000000     
  0.500000000000000     
  0.500000000000000     
  0.500000000000000     
  0.500000000000000     
  0.500000000000000     
  0.500000000000000     
  0.500000000000000     
  0.500000000000000     
  0.500000000000000     
  0.500000000000000     
  0.500000000000000     
  0.500000000000000     
  0.500000000000000     
  0.500000000000000     
  0.500000000000000     
  0.500000000000000     
  0.500000000000000     
  0.500000000000000     
  0.500000000000000     
  0.500000000000000     
  0.500000000000000     
  0.500000000000000     
  0.500000000000000     
  0.500000000000000     
  0.500000000000000     
  0.500000000000000     
  0.500000000000000     
  0.500000000000000     
  0.500000000000000     
  0.500000000000000     
  0.500000000000000     
  0.500000000000000     
  0.500000000000000     
  0.500000000000000     
  0.500000000000000     
  0.500000000000000     
  0.500000000000000     
  0.500000000000000     
  0.500000000000000     
  0.500000000000000     
  0.500000000000000     
  0.500000000000000     
  0.500000000000000     
  0.500000000000000     
  0.500000000000000     
  0.500000000000000     
  0.500000000000000     
  0.500000000000000     
  0.500000000000000     
  0.500000000000000     
  0.500000000000000     
  0.500000000000000     
  0.500000000000000     
  0.500000000000000     
  0.500000000000000     
  0.500000000000000     
  0.500000000000000     
  0.500000000000000     
  0.500000000000000     
  0.500000000000000     
  0.500000000000000     
  0.500000000000000     
  0.500000000000000     
  0.500000000000000     
  0.500000000000000     
  0.500000000000000     
  0.500000000000000     
  0.500000000000000     
  0.500000000000000     
  0.500000000000000     
  0.500000000000000     
  0.500000000000000     
  0.500000000000000     
  0.500000000000000     
  0.500000000000000     
  0.500000000000000     
  0.500000000000000     
  0.500000000000000     
  0.500000000000000     
  0.500000000000000     
  0.500000000000000     
  0.500000000000000     
  0.500000000000000     
  0.500000000000000     
  0.500000000000000     
  0.500000000000000     
  0.500000000000000     
  0.500000000000000     
  0.500000000000000     
  0.500000000000000     
  0.500000000000000     
  0.500000000000000     
  0.500000000000000     
  0.500000000000000     
  0.500000000000000     
  0.500000000000000     
  0.500000000000000     
  0.500000000000000     
  0.500000000000000     
  0.500000000000000     
  0.500000000000000     
  0.500000000000000     
  0.500000000000000     
  0.500000000000000     
  0.500000000000000     
  0.500000000000000     
  0.500000000000000     
  0.500000000000000     
  0.500000000000000     
  0.500000000000000     
  0.500000000000000     
  0.500000000000000     
  0.500000000000000     
  0.500000000000000     
  0.500000000000000     
  0.500000000000000     
  0.500000000000000     
  0.500000000000000     
  0.500000000000000     
  0.500000000000000     
  0.500000000000000     
  0.500000000000000     
  0.500000000000000     
  0.500000000000000     
  0.500000000000000     
  0.500000000000000     
  0.500000000000000     
  0.500000000000000     
  0.500000000000000     
  0.500000000000000     
  0.500000000000000     
  0.500000000000000     
  0.500000000000000     
  0.500000000000000     
  0.500000000000000     
  0.500000000000000     
  0.500000000000000     
  0.500000000000000     
  0.500000000000000     
  0.500000000000000     
  0.500000000000000     
  0.500000000000000     
  0.500000000000000     
  0.500000000000000     
  0.500000000000000     
  0.500000000000000     
  0.500000000000000     
  0.500000000000000     
  0.500000000000000     
  0.500000000000000     
  0.500000000000000     
  0.500000000000000     
  0.500000000000000     
  0.500000000000000     
  0.500000000000000     
  0.500000000000000     
  0.500000000000000     
  0.500000000000000     
  0.500000000000000     
  0.500000000000000     
  0.500000000000000     
  0.500000000000000     
  0.500000000000000     
  0.500000000000000     
  0.500000000000000     
  0.500000000000000     
  0.500000000000000     
  0.500000000000000     
  0.500000000000000     
  0.500000000000000     
  0.500000000000000     
  0.500000000000000     
  0.500000000000000     
  0.500000000000000     
  0.500000000000000     
  0.500000000000000     
  0.500000000000000     
  0.500000000000000     
  0.500000000000000     
  0.500000000000000     
  0.500000000000000     
  0.500000000000000     
  0.500000000000000     
  0.500000000000000     
  0.500000000000000     
  0.500000000000000     
  0.500000000000000     
  0.500000000000000     
  0.500000000000000     
  0.500000000000000     
  0.500000000000000     
  0.500000000000000     
  0.500000000000000     
  0.500000000000000     
  0.500000000000000     
  0.500000000000000     
  0.500000000000000     
  0.500000000000000     
  0.500000000000000     
  0.500000000000000     
  0.500000000000000     
  0.500000000000000     
  0.500000000000000     
  0.500000000000000     
  0.500000000000000     
  0.500000000000000     
  0.500000000000000     
  0.500000000000000     
  0.500000000000000     
  0.500000000000000     
  0.500000000000000     
  0.500000000000000     
  0.500000000000000     
  0.500000000000000     
  0.500000000000000     
  0.500000000000000     
  0.500000000000000     
  0.500000000000000     
  0.500000000000000     
  0.500000000000000     
  0.500000000000000     
  0.500000000000000     
  0.500000000000000     
  0.500000000000000     
  0.500000000000000     
  0.500000000000000     
  0.500000000000000     
  0.500000000000000     
  0.500000000000000     
  0.500000000000000     
  0.500000000000000     
  0.500000000000000     
  0.500000000000000     
  0.500000000000000     
  0.500000000000000     
  0.500000000000000     
  0.500000000000000     
  0.500000000000000     
  0.500000000000000     
  0.500000000000000     
  0.500000000000000     
  0.500000000000000     
  0.500000000000000     
  0.500000000000000     
  0.500000000000000     
  0.500000000000000     
  0.500000000000000     
  0.500000000000000     
  0.500000000000000     
  0.500000000000000     
  0.500000000000000     
  0.500000000000000     
  0.500000000000000     
  0.500000000000000     
  0.500000000000000     
  0.500000000000000     
  0.500000000000000     
  0.500000000000000     
  0.500000000000000     
  0.500000000000000     
  0.500000000000000     
  0.500000000000000     
  0.500000000000000     
  0.500000000000000     
  0.500000000000000     
  0.500000000000000     
  0.500000000000000     
  0.500000000000000     
  0.500000000000000     
  0.500000000000000     
  0.500000000000000     
  0.500000000000000     
  0.500000000000000     
  0.500000000000000     
  0.500000000000000     
  0.500000000000000     
  0.500000000000000     
  0.500000000000000     
  0.500000000000000     
  0.500000000000000     
  0.500000000000000     
  0.500000000000000     
  0.500000000000000     
  0.500000000000000     
  0.500000000000000     
  0.500000000000000     
  0.500000000000000     
  0.500000000000000     
  0.500000000000000     
  0.500000000000000     
  0.500000000000000     
  0.500000000000000     
  0.500000000000000     
  0.500000000000000     
  0.500000000000000     
  0.500000000000000     
  0.500000000000000     
  0.500000000000000     
  0.500000000000000     
  0.500000000000000     
  0.500000000000000     
  0.500000000000000     
  0.500000000000000     
  0.500000000000000     
  0.500000000000000     
  0.500000000000000     
  0.500000000000000     
  0.500000000000000     
  0.500000000000000     
  0.500000000000000     
  0.500000000000000     
  0.500000000000000     
  0.500000000000000     
  0.500000000000000     
  0.500000000000000     
  0.500000000000000     
  0.500000000000000     
  0.500000000000000     
  0.500000000000000     
  0.500000000000000     
  0.500000000000000     
  0.500000000000000     
  0.500000000000000     
  0.500000000000000     
  0.500000000000000     
  0.500000000000000     
  0.500000000000000     
  0.500000000000000     
  0.500000000000000     
  0.500000000000000     
  0.500000000000000     
  0.500000000000000     
  0.500000000000000     
  0.500000000000000     
  0.500000000000000     
  0.500000000000000     
  0.500000000000000     
  0.500000000000000     
  0.500000000000000     
  0.500000000000000     
  0.500000000000000     
  0.500000000000000     
  0.500000000000000     
  0.500000000000000     
  0.500000000000000     
  0.500000000000000     
  0.500000000000000     
  0.500000000000000     
  0.500000000000000     
  0.500000000000000     
  0.500000000000000     
  0.500000000000000     
  0.500000000000000     
  0.500000000000000     
  0.500000000000000     
  0.500000000000000     
  0.500000000000000     
  0.500000000000000     
  0.500000000000000     
  0.500000000000000     
  0.500000000000000     
  0.500000000000000     
  0.500000000000000     
  0.500000000000000     
  0.500000000000000     
  0.500000000000000     
  0.500000000000000     
  0.500000000000000     
  0.500000000000000     
  0.500000000000000     
  0.500000000000000     
  0.500000000000000     
  0.500000000000000     
  0.500000000000000     
  0.500000000000000     
  0.500000000000000     
  0.500000000000000     
  0.500000000000000     
  0.500000000000000     
  0.500000000000000     
  0.500000000000000     
  0.500000000000000     
  0.500000000000000     
  0.500000000000000     
  0.500000000000000     
  0.500000000000000     
  0.500000000000000     
  0.500000000000000     
  0.500000000000000     
  0.500000000000000     
  0.500000000000000     
  0.500000000000000     
  0.500000000000000     
  0.500000000000000     
  0.500000000000000     
  0.500000000000000     
  0.500000000000000     
  0.500000000000000     
  0.500000000000000     
  0.500000000000000     
  0.500000000000000     
  0.500000000000000     
  0.500000000000000     
  0.500000000000000     
  0.500000000000000     
  0.500000000000000     
  0.500000000000000     
  0.500000000000000     
  0.500000000000000     
  0.500000000000000     
  0.500000000000000     
  0.500000000000000     
  0.500000000000000     
  0.500000000000000     
  0.500000000000000     
  0.500000000000000     
  0.500000000000000     
  0.500000000000000     
  0.500000000000000     
  0.500000000000000     
  0.500000000000000     
  0.500000000000000     
  0.500000000000000     
  0.500000000000000     
  0.500000000000000     
  0.500000000000000     
  0.500000000000000     
  0.500000000000000     