# vtk DataFile Version 5.1
Data.vtk
ASCII
DATASET UNSTRUCTURED_GRID
 
POINTS 2000 float
   -5.63  -13.36   -1.38
    4.00  -13.94    1.01
   -9.12   -8.58    2.50
  -10.56   -9.90   -1.86
    3.00  -13.29    8.12
   -4.79  -12.71   -9.47
   -4.91  -13.64   -8.51
   -3.83   -9.47   -7.81
    3.14  -13.22   -3.66
   -4.86  -11.88   -1.21
    1.15  -11.25   -2.95
    1.99  -12.54   -6.70
   -3.99  -13.93   -3.39
   -0.00  -12.62    3.91
   -2.99   -9.69   -1.08
   -1.64  -14.40    4.55
    3.24  -13.14    4.09
   -8.60  -10.46    8.03
  -11.66   -6.74    7.62
   -3.71   -9.68   -5.02
   -5.60   -9.13   -0.94
  -13.26   -5.87    8.12
   -6.23   -9.92   -9.20
   -7.58   -7.49   -5.96
   -3.49  -13.37   -1.69
    1.80  -11.90   -1.18
   -1.36  -10.49    5.09
   -3.67  -11.09    8.27
    4.06  -11.71   -2.82
    2.32  -13.37    9.31
   -9.52   -8.04   -5.61
    2.73  -14.24    0.47
  -11.10   -7.88    9.38
    1.69  -13.41   -1.85
   -8.85   -7.75   -3.34
  -12.49   -5.22    8.72
    4.54  -13.77    7.97
   -3.92  -10.55    3.57
    3.77  -11.76    1.75
    0.05  -12.79    2.88
   -5.80  -13.29   -3.25
   -9.60   -8.27   -2.13
   -0.66  -13.08   -5.46
   -5.42  -12.53    0.32
    2.55  -12.65   -7.91
   -2.50  -14.22    5.07
   -9.87  -10.62    8.64
   -6.65  -10.16   -5.06
    2.71  -13.35   -0.06
   -8.66   -8.17   -6.50
  -13.08   -6.15   -9.48
   -1.81  -11.23    7.56
    3.34  -14.11    9.50
    0.02  -12.32    1.63
    4.16  -13.89    4.99
    2.14  -13.54   -0.87
    1.65  -14.26   -6.81
   -1.80  -11.44    1.36
   -3.12   -9.86    0.50
   -5.96  -11.38   -9.05
    2.05  -10.70   -0.69
   -0.86  -10.75   -9.47
   -6.55  -11.10    8.19
  -12.40   -7.28    1.55
   -4.33  -13.84    0.33
   -2.86  -11.19    1.25
  -12.32   -7.29   -8.23
    3.02  -14.18    3.45
  -10.89   -9.57   -8.51
   -1.10  -13.74   -3.12
    5.92  -12.57    3.14
   -1.68   -9.76   -6.29
   -7.74  -11.31   -7.86
    4.90  -13.65    3.53
   -5.18  -13.54    9.50
    2.38  -11.31   -7.14
   -3.43  -13.93    8.71
  -10.18   -8.91   -7.00
   -1.14  -12.67    1.61
    0.81  -14.44    1.00
   -8.55   -7.38    8.76
   -6.21  -13.10    9.50
   -8.05  -11.02   -4.50
   -5.64  -13.32   -9.48
   -7.71   -9.08   -5.90
   -3.37  -12.05   -7.78
   -5.84   -9.25    1.52
    1.93  -14.37   -7.76
    6.09  -12.45    0.05
   -2.32  -13.16    5.85
    3.63  -13.90    0.08
   -9.33   -6.46   -7.62
   -0.12  -14.50   -8.28
    4.44  -12.92    7.03
   -8.01  -12.09    9.50
    2.29  -14.32   -3.19
   -5.40  -10.43    2.47
   -0.66  -10.86    4.47
   -8.73  -11.35   -5.53
    3.79  -11.67   -1.46
  -11.98   -8.01    2.08
    4.49  -13.79   -8.14
    5.24  -12.64    0.85
    2.82  -14.22    8.65
    0.20  -11.64    0.90
   -2.48  -14.29   -9.46
   -9.62  -10.85    5.03
    3.38  -13.67   -6.91
   -7.96   -9.13    5.80
   -7.36  -10.29    3.01
    5.98  -12.91    6.48
   -7.67   -9.63   -0.66
   -6.12  -13.14   -2.23
   -5.97  -12.27   -7.64
   -8.09  -12.03    5.43
   -1.91  -13.65   -8.58
   -2.14  -10.12    0.35
    1.58  -13.55   -6.11
  -13.16   -5.94    7.09
   -0.83  -14.48    7.50
   -9.74   -9.39    7.84
   -1.64  -12.62    9.50
    1.15  -11.28    7.83
    4.78  -12.66    3.57
    1.52  -14.42   -1.90
    2.58  -14.19   -4.15
  -10.13  -10.21   -6.04
   -6.18   -9.83    2.32
   -9.24   -8.36   -8.59
   -9.20   -7.38   -8.40
   -5.27  -11.70   -3.83
    4.38  -12.65    2.62
    3.93  -13.96   -3.00
    3.75  -14.01   -0.90
   -0.69  -12.05   -7.64
   -7.89   -9.67    8.04
   -5.92   -8.44   -7.79
   -7.38  -10.56   -6.78
   -9.48   -9.61    9.47
   -9.06  -11.32    0.59
   -0.22  -14.50   -0.81
  -10.50   -7.40    3.60
   -1.46  -11.56   -6.07
    3.32  -14.12    7.66
    2.29  -12.87    3.63
   -7.98   -8.17    6.19
   -3.38  -11.55    5.46
  -10.46   -8.62   -9.50
   -7.86   -9.09   -8.40
   -2.44  -11.35   -8.65
   -0.84  -13.61    6.98
    3.19  -13.18   -1.01
   -0.38  -11.97    3.25
    2.20  -12.53   -4.91
   -7.34   -8.33   -8.00
   -5.83  -11.01    1.77
   -3.80  -11.71    1.84
   -4.06  -13.92    6.91
    1.86  -12.31    7.26
   -9.58  -10.88    7.51
    4.32  -13.00   -8.72
   -8.88  -11.47    9.50
  -11.45   -7.14   -8.87
   -7.35  -12.46    4.11
   -3.24  -13.13   -8.51
    4.09  -12.34    0.98
   -5.58   -9.50   -2.55
   -8.79   -7.53   -7.36
   -0.55  -14.49   -3.99
    1.01  -12.18   -6.42
   -7.77  -12.24    1.90
   -1.92  -12.63   -6.46
   -7.08  -10.26    8.03
    1.52  -12.98   -7.47
   -6.07   -9.92    5.57
    0.43  -13.61    3.32
   -5.69   -9.25    8.33
    1.16  -12.95    9.37
    3.13  -12.52   -4.37
   -7.53  -11.58   -0.62
    0.77  -11.01   -1.76
   -2.97  -14.19    3.93
   -5.77  -13.30    2.61
   -2.48  -12.50   -7.68
   -0.27  -11.50    9.47
   -5.20  -13.54   -5.52
   -1.03  -11.04   -2.77
  -12.81   -5.10   -6.91
    1.88  -10.98    3.55
   -8.63   -9.44   -3.36
   -2.86  -11.36   -1.43
   -8.10  -10.96    5.68
  -10.62   -6.46    4.66
   -2.24  -10.87   -7.35
   -4.18  -13.88   -5.37
  -10.22  -10.27    9.50
    0.07  -13.62   -8.74
  -13.43   -5.16   -8.30
  -11.50   -6.83   -1.87
    1.23  -13.57    0.44
   -3.09  -12.53    5.71
  -10.66   -7.73    8.49
   -6.20  -12.24   -8.62
   -8.82  -10.56   -0.99
   -5.37  -13.47    5.55
   -4.72   -8.81   -7.26
   -1.69  -14.40   -5.58
    5.22  -13.53    6.86
    0.77  -13.73   -9.49
    1.73  -11.54   -6.07
    0.72  -12.96    6.32
   -6.81   -8.71   -8.78
    1.37  -13.74    5.93
  -11.06   -9.37   -7.54
   -2.06  -14.35   -6.89
    1.14  -13.75    1.80
    3.65  -13.14    1.51
   -9.13   -6.60    9.45
    0.72  -11.87   -8.01
   -0.71  -10.16   -3.36
   -1.89  -12.78    5.03
   -5.71  -13.33    7.38
    0.45  -10.53   -2.97
   -3.56  -11.10   -2.10
   -7.88   -8.87    6.90
   -3.98   -9.54    8.26
   -2.11  -11.22   -5.39
  -10.51   -9.88   -3.51
    2.78  -12.09    6.51
   -1.45  -11.50   -8.69
   -7.78   -9.13   -2.39
   -8.60  -11.66    6.20
   -5.00  -10.33   -6.62
   -0.24  -12.65    6.33
    0.90  -11.14   -6.47
   -1.46  -10.72   -1.00
    0.70  -12.31   -1.35
   -3.22  -14.14    2.08
   -2.97  -13.41    3.14
   -3.55  -10.59   -5.42
    5.60  -12.48    1.78
  -11.25   -9.15    7.15
    1.42  -11.98   -7.31
   -4.55   -9.74   -8.45
   -1.75  -14.39    6.53
    0.02  -10.74    0.49
   -0.03  -12.99   -9.50
    2.09  -14.35    3.78
   -3.30  -10.20    8.56
   -2.65   -9.78    7.91
   -9.46   -9.74   -2.64
    1.67  -12.79   -8.90
   -0.24  -12.80   -8.26
   -8.87   -7.68    6.56
  -13.08   -6.25    9.15
   -9.48  -10.86    3.31
   -8.42   -8.02   -8.15
  -11.51   -8.59    6.36
   -0.38  -11.84   -5.60
    4.02  -13.09   -2.49
   -7.27  -10.79   -8.58
    0.02  -13.81   -5.43
    4.15  -12.43    4.41
   -1.55  -14.42    8.24
    0.68  -11.07   -3.87
  -12.30   -6.74   -6.07
  -10.40   -9.52    3.37
    4.67  -12.74    6.06
   -2.16  -11.69   -6.77
    1.97  -13.53   -9.50
    0.99  -12.54   -0.30
   -7.04  -11.04    0.99
   -2.19   -9.88   -7.38
  -11.52   -8.81   -8.30
   -4.65  -12.94   -7.65
   -2.35  -10.13    5.79
   -2.31  -13.60    6.79
  -10.92   -9.54    9.50
   -3.80  -13.99   -8.51
   -4.64  -10.48    0.15
   -7.07   -9.67    5.13
  -10.26   -7.02    6.10
   -4.67  -13.72   -7.04
   -6.22   -8.50    8.75
   -0.70  -12.13   -0.77
   -0.58  -14.49    8.48
   -4.74  -11.61   -2.16
   -5.15  -12.65    8.00
   -3.45  -14.08   -9.49
   -8.85  -11.48    5.08
   -6.93   -9.09    0.66
   -4.78  -13.65    7.58
    1.20  -12.56   -2.19
   -2.73  -13.24   -7.07
   -5.41  -10.63    9.50
    4.51  -12.28   -2.13
  -12.84   -6.54   -7.61
   -0.43  -13.63    6.07
   -7.68  -11.28    6.54
   -8.53   -8.48   -3.96
  -11.21   -9.20   -1.55
  -11.21   -9.20    8.29
   -1.84  -12.04    2.96
    5.00  -13.61   -6.20
   -4.59  -13.75   -0.65
   -9.55   -7.49    7.27
   -1.37  -13.29    6.19
   -6.20   -8.71   -4.73
    3.58  -14.05   -4.01
   -4.61  -12.28    9.50
   -6.34  -13.04   -6.75
   -1.24  -11.99    5.10
    2.78  -14.23   -0.53
    2.19  -12.59   -2.34
   -8.78   -9.70   -9.50
  -10.29  -10.00   -7.64
   -7.43   -8.22   -9.50
    0.46  -13.81   -0.35
   -5.52   -9.65    3.07
    0.81  -11.96   -5.46
   -5.28   -9.26   -7.96
   -4.72  -13.71   -9.50
  -10.65   -7.08   -2.76
   -7.20   -8.86   -1.49
    4.06  -13.92   -1.93
    4.00  -13.94    2.01
    5.05  -13.59    0.60
  -12.10   -7.93    9.49
   -6.80   -9.49   -5.79
   -1.18  -13.66    4.06
    0.04  -14.49    0.24
   -7.65  -12.31   -2.75
   -7.26   -8.36    2.21
   -4.15  -11.26   -2.90
   -3.87  -10.04    5.97
    2.45  -12.43   -3.29
   -3.09  -12.86    9.50
    2.35  -11.33    4.65
   -3.63  -10.49   -0.20
   -0.35  -14.49   -2.04
    1.56  -14.39   -3.88
   -6.98   -9.26   -7.95
  -11.98   -7.80    6.76
   -1.94  -11.27    4.86
   -4.40  -10.72   -9.46
    0.72  -12.69   -8.60
   -0.74  -14.48    6.50
    2.17  -14.34   -5.76
   -3.53  -12.51   -6.41
    0.01  -11.40    4.99
    2.51  -11.75   -4.19
   -4.31   -9.03   -9.50
   -1.52  -10.40   -2.07
    7.05  -12.67    3.14
   -5.97  -11.52   -5.82
   -3.13  -14.16    7.21
   -8.80  -11.53   -9.50
   -5.16   -9.23    3.91
    0.15  -13.49    6.98
    2.46  -12.19   -5.88
   -2.15   -9.53    6.66
   -7.08   -8.13    6.77
   -0.27  -14.50   -7.02
   -8.47   -9.75    9.50
  -11.98   -7.87    3.57
    3.94  -13.04   -0.37
    2.00  -12.77    6.37
   -7.50   -8.44   -4.53
   -3.12  -14.16   -2.94
   -2.34  -13.44    7.84
   -6.85  -11.39   -6.96
   -8.40  -10.62   -9.41
   -9.57  -10.68   -7.55
    0.10  -11.20    8.54
    4.80  -13.03   -7.54
   -1.34  -10.82    2.01
  -13.33   -5.35    9.50
    0.21  -14.50    3.74
   -1.21  -12.11   -2.50
   -7.45  -12.44   -9.46
   -7.66   -7.84   -7.19
    2.65  -13.30   -5.36
   -1.78   -9.77   -2.80
   -3.02  -12.20    7.10
    2.93  -12.78   -7.00
   -5.55  -10.58   -9.50
    0.90  -14.47   -0.99
   -8.77  -11.54    3.16
   -3.54  -11.36   -4.48
  -12.12   -7.90   -9.50
   -2.44  -10.70    8.26
  -11.55   -8.77    9.50
   -1.00  -13.89   -9.50
   -7.79  -10.90    8.43
    0.46  -13.64    8.54
  -10.86   -9.57    5.04
[...]
POINT_DATA 2000
SCALARS radius float
LOOKUP_TABLE default
  0.500000000000000     
  0.500000000000000     
  0.500000000000000     
  0.500000000000000     
  0.500000000000000     
  0.500000000000000     
  0.500000000000000     
  0.500000000000000     
  0.500000000000000     
  0.500000000000000     
  0.500000000000000     
  0.500000000000000     
  0.500000000000000     
  0.500000000000000     
  0.500000000000000     
  0.500000000000000     
  0.500000000000000     
  0.500000000000000     
  0.500000000000000     
  0.500000000000000     
  0.500000000000000     
  0.500000000000000     
  0.500000000000000     
  0.500000000000000     
  0.500000000000000     
  0.500000000000000     
  0.500000000000000     
  0.500000000000000     
  0.500000000000000     
  0.500000000000000     
  0.500000000000000     
  0.500000000000000     
  0.500000000000000     
  0.500000000000000     
  0.500000000000000     
  0.500000000000000     
  0.500000000000000     
  0.500000000000000     
  0.500000000000000     
  0.500000000000000     
  0.500000000000000     
  0.500000000000000     
  0.500000000000000     
  0.500000000000000     
  0.500000000000000     
  0.500000000000000     
  0.500000000000000     
  0.500000000000000     
  0.500000000000000     
  0.500000000000000     
  0.500000000000000     
  0.500000000000000     
  0.500000000000000     
  0.500000000000000     
  0.500000000000000     
  0.500000000000000     
  0.500000000000000     
  0.500000000000000     
  0.500000000000000     
  0.500000000000000     
  0.500000000000000     
  0.500000000000000     
  0.500000000000000     
  0.500000000000000     
  0.500000000000000     
  0.500000000000000     
  0.500000000000000     
  0.500000000000000     
  0.500000000000000     
  0.500000000000000     
  0.500000000000000     
  0.500000000000000     
  0.500000000000000     
  0.500000000000000     
  0.500000000000000     
  0.500000000000000     
  0.500000000000000     
  0.500000000000000     
  0.500000000000000     
  0.500000000000000     
  0.500000000000000     
  0.500000000000000     
  0.500000000000000     
  0.500000000000000     
  0.500000000000000     
  0.500000000000000     
  0.500000000000000     
  0.500000000000000     
  0.500000000000000     
  0.500000000000000     
  0.500000000000000     
  0.500000000000000     
  0.500000000000000     
  0.500000000000000     
  0.500000000000000     
  0.500000000000000     
  0.500000000000000     
  0.500000000000000     
  0.500000000000000     
  0.500000000000000     
  0.500000000000000     
  0.500000000000000     
  0.500000000000000     
  0.500000000000000     
  0.500000000000000     
  0.500000000000000     
  0.500000000000000     
  0.500000000000000     
  0.500000000000000     
  0.500000000000000     
  0.500000000000000     
  0.500000000000000     
  0.500000000000000     
  0.500000000000000     
  0.500000000000000     
  0.500000000000000     
  0.500000000000000     
  0.500000000000000     
  0.500000000000000     
  0.500000000000000     
  0.500000000000000     
  0.500000000000000     
  0.500000000000000     
  0.500000000000000     
  0.500000000000000     
  0.500000000000000     
  0.500000000000000     
  0.500000000000000     
  0.500000000000000     
  0.500000000000000     
  0.500000000000000     
  0.500000000000000     
  0.500000000000000     
  0.500000000000000     
  0.500000000000000     
  0.500000000000000     
  0.500000000000000     
  0.500000000000000     
  0.500000000000000     
  0.500000000000000     
  0.500000000000000     
  0.500000000000000     
  0.500000000000000     
  0.500000000000000     
  0.500000000000000     
  0.500000000000000     
  0.500000000000000     
  0.500000000000000     
  0.500000000000000     
  0.500000000000000     
  0.500000000000000     
  0.500000000000000     
  0.500000000000000     
  0.500000000000000     
  0.500000000000000     
  0.500000000000000     
  0.500000000000000     
  0.500000000000000     
  0.500000000000000     
  0.500000000000000     
  0.500000000000000     
  0.500000000000000     
  0.500000000000000     
  0.500000000000000     
  0.500000000000000     
  0.500000000000000     
  0.500000000000000     
  0.500000000000000     
  0.500000000000000     
  0.500000000000000     
  0.500000000000000     
  0.500000000000000     
  0.500000000000000     
  0.500000000000000     
  0.500000000000000     
  0.500000000000000     
  0.500000000000000     
  0.500000000000000     
  0.500000000000000     
  0.500000000000000     
  0.500000000000000     
  0.500000000000000     
  0.500000000000000     
  0.500000000000000     
  0.500000000000000     
  0.500000000000000     
  0.500000000000000     
  0.500000000000000     
  0.500000000000000     
  0.500000000000000     
  0.500000000000000     
  0.500000000000000     
  0.500000000000000     
  0.500000000000000     
  0.500000000000000     
  0.500000000000000     
  0.500000000000000     
  0.500000000000000     
  0.500000000000000     
  0.500000000000000     
  0.500000000000000     
  0.500000000000000     
  0.500000000000000     
  0.500000000000000     
  0.500000000000000     
  0.500000000000000     
  0.500000000000000     
  0.500000000000000     
  0.500000000000000     
  0.500000000000000     
  0.500000000000000     
  0.500000000000000     
  0.500000000000000     
  0.500000000000000     
  0.500000000000000     
  0.500000000000000     
  0.500000000000000     
  0.500000000000000     
  0.500000000000000     
  0.500000000000000     
  0.500000000000000     
  0.500000000000000     
  0.500000000000000     
  0.500000000000000     
  0.500000000000000     
  0.500000000000000     
  0.500000000000000     
  0.500000000000000     
  0.500000000000000     
  0.500000000000000     
  0.500000000000000     
  0.500000000000000     
  0.500000000000000     
  0.500000000000000     
  0.500000000000000     
  0.500000000000000     
  0.500000000000000     
  0.500000000000000     
  0.500000000000000     
  0.500000000000000     
  0.500000000000000     
  0.500000000000000     
  0.500000000000000     
  0.500000000000000     
  0.500000000000000     
  0.500000000000000     
  0.500000000000000     
  0.500000000000000     
  0.500000000000000     
  0.500000000000000     
  0.500000000000000     
  0.500000000000000     
  0.500000000000000     
  0.500000000000000     
  0.500000000000000     
  0.500000000000000     
  0.500000000000000     
  0.500000000000000     
  0.500000000000000     
  0.500000000000000     
  0.500000000000000     
  0.500000000000000     
  0.500000000000000     
  0.500000000000000     
  0.500000000000000     
  0.500000000000000     
  0.500000000000000     
  0.500000000000000     
  0.500000000000000     
  0.500000000000000     
  0.500000000000000     
  0.500000000000000     
  0.500000000000000     
  0.500000000000000     
  0.500000000000000     
  0.500000000000000     
  0.500000000000000     
  0.500000000000000     
  0.500000000000000     
  0.500000000000000     
  0.500000000000000     
  0.500000000000000     
  0.500000000000000     
  0.500000000000000     
  0.500000000000000     
  0.500000000000000     
  0.500000000000000     
  0.500000000000000     
  0.500000000000000     
  0.500000000000000     
  0.500000000000000     
  0.500000000000000     
  0.500000000000000     
  0.500000000000000     
  0.500000000000000     
  0.500000000000000     
  0.500000000000000     
  0.500000000000000     
  0.500000000000000     
  0.500000000000000     
  0.500000000000000     
  0.500000000000000     
  0.500000000000000     
  0.500000000000000     
  0.500000000000000     
  0.500000000000000     
  0.500000000000000     
  0.500000000000000     
  0.500000000000000     
  0.500000000000000     
  0.500000000000000     
  0.500000000000000     
  0.500000000000000     
  0.500000000000000     
  0.500000000000000     
  0.500000000000000     
  0.500000000000000     
  0.500000000000000     
  0.500000000000000     
  0.500000000000000     
  0.500000000000000     
  0.500000000000000     
  0.500000000000000     
  0.500000000000000     
  0.500000000000000     
  0.500000000000000     
  0.500000000000000     
  0.500000000000000     
  0.500000000000000     
  0.500000000000000     
  0.500000000000000     
  0.500000000000000     
  0.500000000000000     
  0.500000000000000     
  0.500000000000000     
  0.500000000000000     
  0.500000000000000     
  0.500000000000000     
  0.500000000000000     
  0.500000000000000     
  0.500000000000000     
  0.500000000000000     
  0.500000000000000     
  0.500000000000000     
  0.500000000000000     
  0.500000000000000     
  0.500000000000000     
  0.500000000000000     
  0.500000000000000     
  0.500000000000000     
  0.500000000000000     
  0.500000000000000     
  0.500000000000000     
  0.500000000000000     
  0.500000000000000     
  0.500000000000000     
  0.500000000000000     
  0.500000000000000     
  0.500000000000000     
  0.500000000000000     
  0.500000000000000     
  0.500000000000000     
  0.500000000000000     
  0.500000000000000     
  0.500000000000000     
  0.500000000000000     
  0.500000000000000     
  0.500000000000000     
  0.500000000000000     
  0.500000000000000     
  0.500000000000000     
  0.500000000000000     
  0.500000000000000     
  0.500000000000000     
  0.500000000000000     
  0.500000000000000     
  0.500000000000000     
  0.500000000000000     
  0.500000000000000     
  0.500000000000000     
  0.500000000000000     
  0.500000000000000     
  0.500000000000000     
  0.500000000000000     
  0.500000000000000     
  0.500000000000000     
  0.500000000000000     
  0.500000000000000     
  0.500000000000000     
  0.500000000000000     
  0.500000000000000     
  0.500000000000000     
  0.500000000000000     
  0.500000000000000     
  0.500000000000000     
  0.500000000000000     
  0.500000000000000     
  0.500000000000000     
  0.500000000000000     
  0.500000000000000     
  0.500000000000000     
  0.500000000000000     
  0.500000000000000     
  0.500000000000000     
  0.500000000000000     
  0.500000000000000     
  0.500000000000000     
  0.500000000000000     
  0.500000000000000     
  0.500000000000000     
  0.500000000000000     
  0.500000000000000     
  0.500000000000000     
  0.500000000000000     
  0.500000000000000     
  0.500000000000000     
  0.500000000000000     
  0.500000000000000     
  0.500000000000000     
  0.500000000000000     
  0.500000000000000     
  0.500000000000000     
  0.500000000000000     
  0.500000000000000     
  0.500000000000000     
  0.500000000000000     
  0.500000000000000     
  0.500000000000000     
  0.500000000000000     
  0.500000000000000     
  0.500000000000000     
  0.500000000000000     
  0.500000000000000     
  0.500000000000000     
  0.500000000000000     
  0.500000000000000     
  0.500000000000000     
  0.500000000000000     
  0.500000000000000     
  0.500000000000000     
  0.500000000000000     
  0.500000000000000     
  0.500000000000000     
  0.500000000000000     
  0.500000000000000     
  0.500000000000000     
  0.500000000000000     
  0.500000000000000     
  0.500000000000000     
  0.500000000000000     
  0.500000000000000     
  0.500000000000000     
  0.500000000000000     
  0.500000000000000     
  0.500000000000000     
  0.500000000000000     
  0.500000000000000     
  0.500000000000000     
  0.500000000000000     
  0.500000000000000     
  0.500000000000000     
  0.500000000000000     
  0.500000000000000     
  0.500000000000000     
  0.500000000000000     
  0.500000000000000     
  0.500000000000000     
  0.500000000000000     
  0.500000000000000     
  0.500000000000000     
  0.500000000000000     
  0.500000000000000     
  0.500000000000000     
  0.500000000000000     
  0.500000000000000     
  0.500000000000000     
  0.500000000000000     
  0.500000000000000     
  0.500000000000000     
  0.500000000000000     
  0.500000000000000     
  0.500000000000000     
  0.500000000000000     
  0.500000000000000     
  0.500000000000000     
  0.500000000000000     
  0.500000000000000     
  0.500000000000000     
  0.500000000000000     
  0.500000000000000     
  0.500000000000000     
  0.500000000000000     
  0.500000000000000     
  0.500000000000000     
  0.500000000000000     
  0.500000000000000     
  0.500000000000000     
  0.500000000000000     
  0.500000000000000     
  0.500000000000000     
  0.500000000000000     
  0.500000000000000     
  0.500000000000000     
  0.500000000000000     
  0.500000000000000     
  0.500000000000000     
  0.500000000000000     
  0.500000000000000     
  0.500000000000000     
  0.500000000000000     
  0.500000000000000     
  0.500000000000000     
  0.500000000000000     
  0.500000000000000     
  0.500000000000000     
  0.500000000000000     
  0.500000000000000     
  0.500000000000000     
  0.500000000000000     
  0.500000000000000     
  0.500000000000000     
  0.500000000000000     
  0.500000000000000     
  0.500000000000000     
  0.500000000000000     
  0.500000000000000     
  0.500000000000000     
  0.500000000000000     
  0.500000000000000     
  0.500000000000000     
  0.500000000000000     
  0.500000000000000     
  0.500000000000000     
  0.500000000000000     
  0.500000000000000     
  0.500000000000000     
  0.500000000000000     
  0.500000000000000     
  0.500000000000000     
  0.500000000000000     
  0.500000000000000     
  0.500000000000000     
  0.500000000000000     
  0.500000000000000     
  0.500000000000000     
  0.500000000000000     
  0.500000000000000     
  0.500000000000000     
  0.500000000000000     
  0.500000000000000     
  0.500000000000000     
  0.500000000000000     
  0.500000000000000     
  0.500000000000000     
  0.500000000000000     
  0.500000000000000     
  0.500000000000000     
  0.500000000000000     
  0.500000000000000     
  0.500000000000000     
  0.500000000000000     
  0.500000000000000     
  0.500000000000000     
  0.500000000000000     
  0.500000000000000     
  0.500000000000000     
  0.500000000000000     
  0.500000000000000     
  0.500000000000000     
  0.500000000000000     
  0.500000000000000     
  0.500000000000000     
  0.500000000000000     
  0.500000000000000     
  0.500000000000000     
  0.500000000000000     
  0.500000000000000     
  0.500000000000000     
  0.500000000000000     
  0.500000000000000     
  0.500000000000000     
  0.500000000000000     
  0.500000000000000     
  0.500000000000000     
  0.500000000000000     
  0.500000000000000     
  0.500000000000000     
  0.500000000000000     
  0.500000000000000     
  0.500000000000000     
  0.500000000000000     
  0.500000000000000     
  0.500000000000000     
  0.500000000000000     
  0.500000000000000     
  0.500000000000000     
  0.500000000000000     
  0.500000000000000     
  0.500000000000000     
  0.500000000000000     
  0.500000000000000     
  0.500000000000000     
  0.500000000000000     
  0.500000000000000     
  0.500000000000000     
  0.500000000000000     
  0.500000000000000     
  0.500000000000000     
  0.500000000000000     
  0.500000000000000     
  0.500000000000000     
  0.500000000000000     
  0.500000000000000     
  0.500000000000000     
  0.500000000000000     
  0.500000000000000     
  0.500000000000000     
  0.500000000000000     
  0.500000000000000     
  0.500000000000000     
  0.500000000000000     
  0.500000000000000     
  0.500000000000000     
  0.500000000000000     
  0.500000000000000     
  0.500000000000000     
  0.500000000000000     
  0.500000000000000     
  0.500000000000000     
  0.500000000000000     
  0.500000000000000     
  0.500000000000000     
  0.500000000000000     
  0.500000000000000     
  0.500000000000000     
  0.500000000000000     
  0.500000000000000     
  0.500000000000000     
  0.500000000000000     
  0.500000000000000     
  0.500000000000000     
  0.500000000000000     
  0.500000000000000     
  0.500000000000000     
  0.500000000000000     
  0.500000000000000     
  0.500000000000000     
  0.500000000000000     
  0.500000000000000     
  0.500000000000000     
  0.500000000000000     
  0.500000000000000     
  0.500000000000000     
  0.500000000000000     
  0.500000000000000     
  0.500000000000000     
  0.500000000000000     
  0.500000000000000     
  0.500000000000000     
  0.500000000000000     
  0.500000000000000     
  0.500000000000000     
  0.500000000000000     
  0.500000000000000     
  0.500000000000000     
  0.500000000000000     
  0.500000000000000     
  0.500000000000000     
  0.500000000000000     
  0.500000000000000     
  0.500000000000000     
  0.500000000000000     
  0.500000000000000     
  0.500000000000000     
  0.500000000000000     
  0.500000000000000     
  0.500000000000000     
  0.500000000000000     
  0.500000000000000     
  0.500000000000000     
  0.500000000000000     
  0.500000000000000     
  0.500000000000000     
  0.500000000000000     
  0.500000000000000     
  0.500000000000000     
  0.500000000000000     
  0.500000000000000     
  0.500000000000000     
  0.500000000000000     
  0.500000000000000     
  0.500000000000000     
  0.500000000000000     
  0.500000000000000     
  0.500000000000000     
  0.500000000000000     
  0.500000000000000     
  0.500000000000000     
  0.500000000000000     
  0.500000000000000     
  0.500000000000000     
  0.500000000000000     
  0.500000000000000     
  0.500000000000000     
  0.500000000000000     
  0.500000000000000     
  0.500000000000000     
  0.500000000000000     
  0.500000000000000     
  0.500000000000000     
  0.500000000000000     
  0.500000000000000     
  0.500000000000000     
  0.500000000000000     
  0.500000000000000     
  0.500000000000000     
  0.500000000000000     
  0.500000000000000     
  0.500000000000000     
  0.500000000000000     
  0.500000000000000     
  0.500000000000000     
  0.500000000000000     
  0.500000000000000     
  0.500000000000000     
  0.500000000000000     
  0.500000000000000     
  0.500000000000000     
  0.500000000000000     
  0.500000000000000     
  0.500000000000000     
  0.500000000000000     
  0.500000000000000     
  0.500000000000000     
  0.500000000000000     
  0.500000000000000     
  0.500000000000000     
  0.500000000000000     
  0.500000000000000     
  0.500000000000000     
  0.500000000000000     
  0.500000000000000     
  0.500000000000000     
  0.500000000000000     
  0.500000000000000     
  0.500000000000000     
  0.500000000000000     
  0.500000000000000     
  0.500000000000000     
  0.500000000000000     
  0.500000000000000     
  0.500000000000000     
  0.500000000000000     
  0.500000000000000     
  0.500000000000000     
  0.500000000000000     
  0.500000000000000     
  0.500000000000000     
  0.500000000000000     
  0.500000000000000     
  0.500000000000000     
  0.500000000000000     
  0.500000000000000     
  0.500000000000000     
  0.500000000000000     
  0.500000000000000     
  0.500000000000000     
  0.500000000000000     
  0.500000000000000     
  0.500000000000000     
  0.500000000000000     
  0.500000000000000     
  0.500000000000000     
  0.500000000000000     
  0.500000000000000     
  0.500000000000000     
  0.500000000000000     
  0.500000000000000     
  0.500000000000000     
  0.500000000000000     
  0.500000000000000     
  0.500000000000000     
  0.500000000000000     
  0.500000000000000     
  0.500000000000000     
  0.500000000000000     
  0.500000000000000     
  0.500000000000000     
  0.500000000000000     
  0.500000000000000     
  0.500000000000000     
  0.500000000000000     
  0.500000000000000     
  0.500000000000000     
  0.500000000000000     
  0.500000000000000     
  0.500000000000000     