# vtk DataFile Version 5.1
Data.vtk
ASCII
DATASET UNSTRUCTURED_GRID
 
POINTS 2000 float
    0.27  -14.50   -1.28
    2.12  -11.29    0.34
  -10.31  -10.17    2.91
   -5.71  -13.33   -2.13
   -0.23  -10.96    5.59
    1.85  -12.41   -9.50
    2.77  -14.22   -8.42
   -9.27   -7.03   -9.39
    2.25  -12.60   -2.51
   -6.35  -11.14   -1.17
   -4.34   -9.24   -2.68
   -1.94  -10.41   -6.43
   -0.30  -13.72   -2.83
   -0.03  -12.87    2.85
  -10.16   -8.41   -0.93
    4.64  -13.74    3.85
   -0.93  -11.29    2.99
   -4.13  -13.30    7.82
   -7.45  -12.43    8.50
  -10.32   -7.59   -6.72
  -10.92   -8.15   -1.53
   -8.82  -11.51    8.66
   -3.98  -10.83   -9.48
  -12.42   -7.10   -9.34
   -1.71  -13.66   -2.07
   -5.44   -9.12   -0.95
   -8.31   -8.85    5.32
   -4.25  -11.32    7.53
   -1.17  -10.47   -1.06
   -1.40  -10.82    7.69
  -11.15   -9.27   -6.59
    5.03  -12.27    0.68
   -7.09  -11.50    9.50
    1.55  -12.90   -1.76
  -12.84   -6.43   -6.02
  -10.32  -10.19    8.60
    3.01  -11.65    4.48
   -8.01   -9.42    3.69
   -2.68   -9.88    1.14
   -0.45  -13.15    0.89
    0.98  -14.46   -3.17
   -9.65  -10.69   -2.53
    0.95  -12.84   -5.20
   -3.52  -13.21   -0.08
   -0.43  -10.34   -5.39
    4.34  -13.84    4.84
   -1.50  -14.42    8.54
   -6.66  -11.98   -6.02
    1.63  -12.17    0.41
  -11.05   -9.38   -7.67
   -5.94  -13.23   -9.50
   -5.99   -9.06    7.74
    1.71  -11.05    5.78
   -2.98  -11.91    1.24
    4.94  -12.19    2.97
    0.97  -12.43   -0.31
    6.06  -13.17   -5.17
   -6.54   -9.85    1.43
   -9.48   -8.82    0.50
   -0.68  -12.85   -8.69
   -6.39   -9.16   -0.59
   -6.24   -9.32   -8.26
   -4.03  -12.30    7.56
   -8.00  -12.09    1.81
    1.68  -14.40   -0.00
   -6.93  -10.42    0.70
   -7.22  -12.06   -8.63
    2.06  -12.32    2.66
   -3.88  -13.97   -8.51
   -0.65  -12.81   -2.59
   -0.40  -10.87    2.25
   -9.28   -7.43   -7.64
   -2.34  -13.42   -8.00
    3.11  -11.52    2.46
    4.88  -13.65    9.50
   -6.94   -7.95   -7.00
    1.91  -13.67    8.46
   -8.18  -11.97   -6.76
   -3.87  -11.49    1.44
    4.89  -13.65    0.80
  -10.75   -8.18    9.40
    3.86  -13.98    9.16
   -5.36  -12.37   -4.68
    4.00  -13.93   -9.50
   -8.65  -10.17   -7.52
   -1.09  -12.66   -7.13
   -9.94   -8.78    1.48
    5.99  -12.13   -5.86
   -3.32   -9.50    0.15
   -1.62  -12.03    5.45
    2.48  -12.08   -0.28
  -10.99   -8.01   -9.50
    3.99  -12.55   -5.89
    0.57  -11.10    3.80
    1.69  -14.40    9.14
    2.89  -11.90   -2.19
   -8.05  -10.53    2.68
   -7.66   -9.32    4.71
   -2.61  -14.26   -5.40
   -3.23   -9.79   -0.81
   -7.22  -12.58    2.20
    5.57  -12.54   -4.56
    1.00  -11.28    0.12
    3.69  -12.24    5.98
   -4.83   -9.99    1.06
    5.37  -12.41   -9.12
   -3.08  -14.15    5.13
    2.23  -11.79   -4.14
  -11.59   -7.08    7.57
   -8.70  -10.39    3.45
   -1.30   -9.89    4.91
   -8.77  -10.44   -1.90
    0.21  -14.50   -2.37
   -1.09  -13.40   -7.89
   -0.56  -14.49    5.16
    2.56  -13.30   -8.74
   -8.89   -7.93   -0.21
    1.43  -12.27   -4.53
   -9.61  -10.85    7.57
    2.16  -11.90    6.27
   -5.93  -12.16    8.37
   -0.52  -10.71    8.29
   -4.41   -9.92    6.89
    3.04  -12.37    3.00
    4.10  -12.41   -1.67
    4.92  -13.25   -3.30
   -4.16  -13.89   -6.07
   -9.28   -9.48    2.65
   -8.01  -10.80   -9.50
  -10.14   -8.93   -9.50
   -4.34  -11.99   -3.95
    0.20  -11.68    1.38
    5.85  -13.27   -2.91
    3.31  -11.90    0.36
   -2.73  -11.20   -6.84
   -6.30  -11.13    8.51
  -13.19   -5.46   -9.03
   -4.78  -13.17   -7.57
   -3.52  -12.55    9.49
   -3.17  -14.14    0.63
    1.80  -12.62   -0.84
  -11.87   -8.28    5.01
   -3.83  -10.77   -5.82
    1.43  -11.68    4.76
   -0.57  -12.03    2.32
  -10.81   -8.40    7.66
   -5.05  -11.25    5.07
   -5.71  -12.26   -9.46
   -7.25  -11.06   -8.78
   -5.52   -8.47   -7.99
    1.80  -13.23    6.49
    0.48  -11.54   -0.70
   -2.24  -11.50    1.77
    1.40  -12.74   -3.65
  -13.09   -4.50   -9.32
   -7.63  -10.56    1.66
   -6.61  -10.72    1.92
    2.89  -14.21    7.44
   -0.12  -11.74    6.81
   -1.95  -14.37    7.65
    0.57  -10.98   -4.86
    0.65  -14.49    9.47
  -12.07   -8.03   -9.50
   -0.46  -14.42    4.14
    2.25  -13.36   -7.75
   -0.70  -11.02    0.81
  -11.89   -7.31   -4.14
  -12.64   -7.11   -8.36
    3.88  -13.97   -2.71
   -2.78  -10.67   -5.95
   -2.14  -14.34    2.15
   -0.90  -11.85   -6.22
   -5.49  -11.36    7.96
    0.34  -12.11   -4.89
   -7.77  -10.66    5.64
    1.75  -13.44    2.19
   -6.95   -9.34    9.29
    1.33  -11.39    7.64
   -0.71  -11.20   -3.27
   -6.10  -12.26   -0.92
   -5.69   -8.94   -2.75
    3.62  -14.04    4.12
    0.20  -14.50    2.06
   -0.13  -12.39   -7.01
   -1.84  -10.67    9.50
    2.28  -14.32   -5.48
   -5.82   -9.80   -3.25
  -11.73   -8.52   -8.24
   -4.42   -9.61    2.89
  -10.83   -9.41   -3.58
   -6.59  -10.22   -1.50
   -5.05  -12.91    6.21
  -12.87   -6.68    9.46
   -5.25   -9.77   -8.00
    2.51  -14.28   -4.31
   -0.76  -14.48    9.50
    3.54  -13.17   -6.54
   -8.46  -11.76   -9.50
  -10.77   -9.69   -1.74
    2.61  -13.07   -0.18
   -2.16  -12.89    5.20
   -9.29   -9.78    9.50
   -0.07  -13.69   -8.44
   -7.51  -11.44   -1.48
   -0.71  -13.62    4.69
  -10.08   -8.06   -9.01
    3.83  -13.98   -5.05
    1.91  -10.93    4.25
    4.39  -12.96   -8.97
   -4.15   -9.93   -6.26
   -0.61  -11.83    5.27
   -8.00   -9.74   -9.46
    2.84  -13.02    4.79
   -4.83  -13.67   -8.43
    4.60  -12.97   -6.82
    2.08  -12.90    1.41
    3.35  -12.90    0.48
  -12.36   -7.54    9.50
   -3.19   -9.86   -7.29
   -7.18   -8.94   -4.52
   -1.33  -12.63    4.71
    1.02  -13.86    7.53
   -7.47   -8.52   -3.66
   -6.03  -11.28   -2.14
   -9.16   -8.87    9.09
   -7.49   -8.54    9.03
   -5.15  -10.10   -6.24
   -5.47  -13.42   -3.98
   -2.05  -10.07    5.80
   -3.96  -10.35   -8.60
  -12.07   -8.04   -5.69
   -1.52  -14.42    6.01
   -5.09  -11.45   -7.45
   -2.54  -11.15    6.14
   -4.89   -9.10   -6.41
   -7.78   -9.37   -1.63
   -4.40  -10.57   -1.07
    3.05  -14.18    1.45
   -0.74  -13.72    3.48
   -7.12   -9.69   -6.34
   -2.29   -9.95    2.69
   -5.07  -13.58    7.63
   -3.74   -9.01   -7.28
   -6.50  -10.42   -8.58
    4.55  -13.77    6.00
   -8.02   -8.41    0.56
    1.91  -12.06   -6.93
    6.41  -13.01    2.84
   -5.43  -10.48    9.48
   -7.69   -8.38    8.06
   -8.54  -10.85   -2.81
    1.64  -11.24   -6.40
    0.20  -11.41   -7.90
  -11.87   -8.30    7.67
   -6.31  -13.06    9.49
   -3.26  -14.13    3.77
   -9.13   -9.07   -9.50
   -6.01  -13.19    6.87
   -3.04  -10.40   -5.02
    2.28  -11.73   -1.35
   -2.96  -12.00   -8.96
    1.69  -13.51   -5.20
   -2.29  -10.24    3.78
    2.93  -12.46    6.58
   -6.23   -8.57   -4.67
   -8.69  -11.61   -5.93
   -4.99  -13.60    3.13
    3.40  -12.43    3.99
   -4.57  -10.68   -6.81
    2.63  -11.83   -6.27
   -3.57  -10.68   -0.51
   -6.05  -12.26    0.77
   -8.51   -8.84   -8.36
   -5.76  -13.31   -8.51
   -0.17  -13.25   -7.54
   -9.23   -8.03    6.94
    1.37  -13.69    5.63
   -1.78  -14.39    9.50
    4.19  -13.88   -8.51
   -8.64  -10.04    0.39
   -8.84   -9.96    6.59
  -10.67   -9.63    7.16
    3.29  -14.12   -6.70
   -5.18  -11.45    9.49
   -5.41  -10.61   -1.17
    4.15  -13.13    7.82
   -5.32  -11.99   -2.09
   -1.90  -12.69    7.19
    3.52  -13.12   -8.50
   -1.64  -14.40    5.01
  -11.61   -8.51    1.73
    2.73  -14.24    8.50
   -1.84  -11.12   -1.81
    1.54  -13.89   -7.25
   -1.72  -11.68    9.50
    1.22  -11.96   -1.68
   -8.21  -11.95   -8.51
    0.47  -12.28    5.30
   -4.31  -13.15    6.84
  -12.16   -7.89   -6.91
   -6.53  -12.92   -1.72
   -3.50  -14.07    7.96
   -4.04  -11.34    2.41
    4.51  -12.41   -3.84
    1.41  -14.43   -1.25
   -8.19  -11.96    8.02
    0.73  -12.94    6.04
  -11.58   -7.37   -7.54
    1.74  -11.02   -1.80
    2.06  -13.47    9.46
    0.73  -13.79   -6.66
   -1.94  -11.85    4.51
    5.93  -12.33    0.22
   -0.95  -11.41   -1.34
   -2.16  -13.31   -9.44
   -4.11  -13.90   -7.48
   -6.27  -10.73   -9.50
    1.81  -13.69   -0.70
   -9.86   -8.92    3.24
   -4.38   -9.70   -4.83
   -9.09   -7.90   -8.92
    4.95  -13.63   -9.49
  -11.52   -8.72   -3.29
  -10.43  -10.07   -2.91
    5.36  -12.55   -2.42
    4.06  -12.33    0.92
    1.23  -10.47    0.98
   -4.40  -13.81    9.50
   -8.06  -10.09   -6.24
    0.23  -13.75    3.24
    4.91  -13.64   -0.62
   -1.60  -14.41   -2.72
  -10.90   -9.37    3.04
   -6.42  -10.58   -3.49
   -8.67   -8.20    8.03
   -2.37   -9.72   -1.56
    0.89  -12.03    9.50
   -5.30   -9.24    4.39
   -9.20   -8.85   -0.46
    3.37  -13.80   -1.86
    3.96  -13.06   -3.12
   -8.07   -9.73   -8.20
   -6.88  -12.73    6.69
   -5.80  -10.10    4.70
   -4.58   -9.15   -8.88
   -1.17  -11.24   -8.28
    5.20  -12.81    5.32
    2.74  -11.48   -3.13
   -2.34  -12.74   -6.12
   -5.30   -9.51    5.37
   -3.38  -10.18   -2.57
   -6.03   -9.76   -9.48
   -8.89   -8.50   -3.12
    0.09  -11.39    2.96
   -3.55  -13.07   -6.08
    3.60  -14.05    6.58
    1.21  -14.45   -9.48
  -12.83   -5.76    7.96
    2.39  -13.38    5.68
   -1.95  -10.63   -3.52
  -12.50   -6.26    7.16
  -10.33   -8.67    8.57
    6.13  -13.14   -6.26
   -4.39  -12.05    9.48
   -7.43  -12.42    3.96
    0.18  -10.72    0.02
    0.62  -12.02    4.18
  -13.36   -5.63   -7.99
    2.75  -14.23   -2.55
    2.11  -13.57    7.46
   -2.80  -13.25   -6.86
   -1.17  -13.49   -9.50
   -3.16  -14.13   -7.83
   -4.29   -8.83    8.32
    3.22  -11.83   -3.97
   -8.09   -8.77    2.15
   -7.50  -12.41    9.50
    4.98  -13.22    2.83
   -4.38  -10.70   -2.78
    2.07  -13.94   -9.48
  -11.38   -7.52   -8.53
    2.38  -12.70   -3.50
   -8.43   -8.98   -4.12
   -1.83  -12.72    6.14
    1.46  -11.73   -5.37
   -2.18  -11.64   -9.50
    5.62  -13.37   -1.26
   -2.34  -14.31    3.38
   -7.19   -8.46   -6.04
   -3.73  -14.01   -9.50
   -6.27   -8.73    8.84
   -2.77  -14.23    9.49
    3.61  -12.68   -7.41
   -2.79  -13.23    9.50
    2.58  -12.63    7.51
   -5.09  -13.58    5.47
[...]
POINT_DATA 2000
SCALARS radius float
LOOKUP_TABLE default
  0.500000000000000     
  0.500000000000000     
  0.500000000000000     
  0.500000000000000     
  0.500000000000000     
  0.500000000000000     
  0.500000000000000     
  0.500000000000000     
  0.500000000000000     
  0.500000000000000     
  0.500000000000000     
  0.500000000000000     
  0.500000000000000     
  0.500000000000000     
  0.500000000000000     
  0.500000000000000     
  0.500000000000000     
  0.500000000000000     
  0.500000000000000     
  0.500000000000000     
  0.500000000000000     
  0.500000000000000     
  0.500000000000000     
  0.500000000000000     
  0.500000000000000     
  0.500000000000000     
  0.500000000000000     
  0.500000000000000     
  0.500000000000000     
  0.500000000000000     
  0.500000000000000     
  0.500000000000000     
  0.500000000000000     
  0.500000000000000     
  0.500000000000000     
  0.500000000000000     
  0.500000000000000     
  0.500000000000000     
  0.500000000000000     
  0.500000000000000     
  0.500000000000000     
  0.500000000000000     
  0.500000000000000     
  0.500000000000000     
  0.500000000000000     
  0.500000000000000     
  0.500000000000000     
  0.500000000000000     
  0.500000000000000     
  0.500000000000000     
  0.500000000000000     
  0.500000000000000     
  0.500000000000000     
  0.500000000000000     
  0.500000000000000     
  0.500000000000000     
  0.500000000000000     
  0.500000000000000     
  0.500000000000000     
  0.500000000000000     
  0.500000000000000     
  0.500000000000000     
  0.500000000000000     
  0.500000000000000     
  0.500000000000000     
  0.500000000000000     
  0.500000000000000     
  0.500000000000000     
  0.500000000000000     
  0.500000000000000     
  0.500000000000000     
  0.500000000000000     
  0.500000000000000     
  0.500000000000000     
  0.500000000000000     
  0.500000000000000     
  0.500000000000000     
  0.500000000000000     
  0.500000000000000     
  0.500000000000000     
  0.500000000000000     
  0.500000000000000     
  0.500000000000000     
  0.500000000000000     
  0.500000000000000     
  0.500000000000000     
  0.500000000000000     
  0.500000000000000     
  0.500000000000000     
  0.500000000000000     
  0.500000000000000     
  0.500000000000000     
  0.500000000000000     
  0.500000000000000     
  0.500000000000000     
  0.500000000000000     
  0.500000000000000     
  0.500000000000000     
  0.500000000000000     
  0.500000000000000     
  0.500000000000000     
  0.500000000000000     
  0.500000000000000     
  0.500000000000000     
  0.500000000000000     
  0.500000000000000     
  0.500000000000000     
  0.500000000000000     
  0.500000000000000     
  0.500000000000000     
  0.500000000000000     
  0.500000000000000     
  0.500000000000000     
  0.500000000000000     
  0.500000000000000     
  0.500000000000000     
  0.500000000000000     
  0.500000000000000     
  0.500000000000000     
  0.500000000000000     
  0.500000000000000     
  0.500000000000000     
  0.500000000000000     
  0.500000000000000     
  0.500000000000000     
  0.500000000000000     
  0.500000000000000     
  0.500000000000000     
  0.500000000000000     
  0.500000000000000     
  0.500000000000000     
  0.500000000000000     
  0.500000000000000     
  0.500000000000000     
  0.500000000000000     
  0.500000000000000     
  0.500000000000000     
  0.500000000000000     
  0.500000000000000     
  0.500000000000000     
  0.500000000000000     
  0.500000000000000     
  0.500000000000000     
  0.500000000000000     
  0.500000000000000     
  0.500000000000000     
  0.500000000000000     
  0.500000000000000     
  0.500000000000000     
  0.500000000000000     
  0.500000000000000     
  0.500000000000000     
  0.500000000000000     
  0.500000000000000     
  0.500000000000000     
  0.500000000000000     
  0.500000000000000     
  0.500000000000000     
  0.500000000000000     
  0.500000000000000     
  0.500000000000000     
  0.500000000000000     
  0.500000000000000     
  0.500000000000000     
  0.500000000000000     
  0.500000000000000     
  0.500000000000000     
  0.500000000000000     
  0.500000000000000     
  0.500000000000000     
  0.500000000000000     
  0.500000000000000     
  0.500000000000000     
  0.500000000000000     
  0.500000000000000     
  0.500000000000000     
  0.500000000000000     
  0.500000000000000     
  0.500000000000000     
  0.500000000000000     
  0.500000000000000     
  0.500000000000000     
  0.500000000000000     
  0.500000000000000     
  0.500000000000000     
  0.500000000000000     
  0.500000000000000     
  0.500000000000000     
  0.500000000000000     
  0.500000000000000     
  0.500000000000000     
  0.500000000000000     
  0.500000000000000     
  0.500000000000000     
  0.500000000000000     
  0.500000000000000     
  0.500000000000000     
  0.500000000000000     
  0.500000000000000     
  0.500000000000000     
  0.500000000000000     
  0.500000000000000     
  0.500000000000000     
  0.500000000000000     
  0.500000000000000     
  0.500000000000000     
  0.500000000000000     
  0.500000000000000     
  0.500000000000000     
  0.500000000000000     
  0.500000000000000     
  0.500000000000000     
  0.500000000000000     
  0.500000000000000     
  0.500000000000000     
  0.500000000000000     
  0.500000000000000     
  0.500000000000000     
  0.500000000000000     
  0.500000000000000     
  0.500000000000000     
  0.500000000000000     
  0.500000000000000     
  0.500000000000000     
  0.500000000000000     
  0.500000000000000     
  0.500000000000000     
  0.500000000000000     
  0.500000000000000     
  0.500000000000000     
  0.500000000000000     
  0.500000000000000     
  0.500000000000000     
  0.500000000000000     
  0.500000000000000     
  0.500000000000000     
  0.500000000000000     
  0.500000000000000     
  0.500000000000000     
  0.500000000000000     
  0.500000000000000     
  0.500000000000000     
  0.500000000000000     
  0.500000000000000     
  0.500000000000000     
  0.500000000000000     
  0.500000000000000     
  0.500000000000000     
  0.500000000000000     
  0.500000000000000     
  0.500000000000000     
  0.500000000000000     
  0.500000000000000     
  0.500000000000000     
  0.500000000000000     
  0.500000000000000     
  0.500000000000000     
  0.500000000000000     
  0.500000000000000     
  0.500000000000000     
  0.500000000000000     
  0.500000000000000     
  0.500000000000000     
  0.500000000000000     
  0.500000000000000     
  0.500000000000000     
  0.500000000000000     
  0.500000000000000     
  0.500000000000000     
  0.500000000000000     
  0.500000000000000     
  0.500000000000000     
  0.500000000000000     
  0.500000000000000     
  0.500000000000000     
  0.500000000000000     
  0.500000000000000     
  0.500000000000000     
  0.500000000000000     
  0.500000000000000     
  0.500000000000000     
  0.500000000000000     
  0.500000000000000     
  0.500000000000000     
  0.500000000000000     
  0.500000000000000     
  0.500000000000000     
  0.500000000000000     
  0.500000000000000     
  0.500000000000000     
  0.500000000000000     
  0.500000000000000     
  0.500000000000000     
  0.500000000000000     
  0.500000000000000     
  0.500000000000000     
  0.500000000000000     
  0.500000000000000     
  0.500000000000000     
  0.500000000000000     
  0.500000000000000     
  0.500000000000000     
  0.500000000000000     
  0.500000000000000     
  0.500000000000000     
  0.500000000000000     
  0.500000000000000     
  0.500000000000000     
  0.500000000000000     
  0.500000000000000     
  0.500000000000000     
  0.500000000000000     
  0.500000000000000     
  0.500000000000000     
  0.500000000000000     
  0.500000000000000     
  0.500000000000000     
  0.500000000000000     
  0.500000000000000     
  0.500000000000000     
  0.500000000000000     
  0.500000000000000     
  0.500000000000000     
  0.500000000000000     
  0.500000000000000     
  0.500000000000000     
  0.500000000000000     
  0.500000000000000     
  0.500000000000000     
  0.500000000000000     
  0.500000000000000     
  0.500000000000000     
  0.500000000000000     
  0.500000000000000     
  0.500000000000000     
  0.500000000000000     
  0.500000000000000     
  0.500000000000000     
  0.500000000000000     
  0.500000000000000     
  0.500000000000000     
  0.500000000000000     
  0.500000000000000     
  0.500000000000000     
  0.500000000000000     
  0.500000000000000     
  0.500000000000000     
  0.500000000000000     
  0.500000000000000     
  0.500000000000000     
  0.500000000000000     
  0.500000000000000     
  0.500000000000000     
  0.500000000000000     
  0.500000000000000     
  0.500000000000000     
  0.500000000000000     
  0.500000000000000     
  0.500000000000000     
  0.500000000000000     
  0.500000000000000     
  0.500000000000000     
  0.500000000000000     
  0.500000000000000     
  0.500000000000000     
  0.500000000000000     
  0.500000000000000     
  0.500000000000000     
  0.500000000000000     
  0.500000000000000     
  0.500000000000000     
  0.500000000000000     
  0.500000000000000     
  0.500000000000000     
  0.500000000000000     
  0.500000000000000     
  0.500000000000000     
  0.500000000000000     
  0.500000000000000     
  0.500000000000000     
  0.500000000000000     
  0.500000000000000     
  0.500000000000000     
  0.500000000000000     
  0.500000000000000     
  0.500000000000000     
  0.500000000000000     
  0.500000000000000     
  0.500000000000000     
  0.500000000000000     
  0.500000000000000     
  0.500000000000000     
  0.500000000000000     
  0.500000000000000     
  0.500000000000000     
  0.500000000000000     
  0.500000000000000     
  0.500000000000000     
  0.500000000000000     
  0.500000000000000     
  0.500000000000000     
  0.500000000000000     
  0.500000000000000     
  0.500000000000000     
  0.500000000000000     
  0.500000000000000     
  0.500000000000000     
  0.500000000000000     
  0.500000000000000     
  0.500000000000000     
  0.500000000000000     
  0.500000000000000     
  0.500000000000000     
  0.500000000000000     
  0.500000000000000     
  0.500000000000000     
  0.500000000000000     
  0.500000000000000     
  0.500000000000000     
  0.500000000000000     
  0.500000000000000     
  0.500000000000000     
  0.500000000000000     
  0.500000000000000     
  0.500000000000000     
  0.500000000000000     
  0.500000000000000     
  0.500000000000000     
  0.500000000000000     
  0.500000000000000     
  0.500000000000000     
  0.500000000000000     
  0.500000000000000     
  0.500000000000000     
  0.500000000000000     
  0.500000000000000     
  0.500000000000000     
  0.500000000000000     
  0.500000000000000     
  0.500000000000000     
  0.500000000000000     
  0.500000000000000     
  0.500000000000000     
  0.500000000000000     
  0.500000000000000     
  0.500000000000000     
  0.500000000000000     
  0.500000000000000     
  0.500000000000000     
  0.500000000000000     
  0.500000000000000     
  0.500000000000000     
  0.500000000000000     
  0.500000000000000     
  0.500000000000000     
  0.500000000000000     
  0.500000000000000     
  0.500000000000000     
  0.500000000000000     
  0.500000000000000     
  0.500000000000000     
  0.500000000000000     
  0.500000000000000     
  0.500000000000000     
  0.500000000000000     
  0.500000000000000     
  0.500000000000000     
  0.500000000000000     
  0.500000000000000     
  0.500000000000000     
  0.500000000000000     
  0.500000000000000     
  0.500000000000000     
  0.500000000000000     
  0.500000000000000     
  0.500000000000000     
  0.500000000000000     
  0.500000000000000     
  0.500000000000000     
  0.500000000000000     
  0.500000000000000     
  0.500000000000000     
  0.500000000000000     
  0.500000000000000     
  0.500000000000000     
  0.500000000000000     
  0.500000000000000     
  0.500000000000000     
  0.500000000000000     
  0.500000000000000     
  0.500000000000000     
  0.500000000000000     
  0.500000000000000     
  0.500000000000000     
  0.500000000000000     
  0.500000000000000     
  0.500000000000000     
  0.500000000000000     
  0.500000000000000     
  0.500000000000000     
  0.500000000000000     
  0.500000000000000     
  0.500000000000000     
  0.500000000000000     
  0.500000000000000     
  0.500000000000000     
  0.500000000000000     
  0.500000000000000     
  0.500000000000000     
  0.500000000000000     
  0.500000000000000     
  0.500000000000000     
  0.500000000000000     
  0.500000000000000     
  0.500000000000000     
  0.500000000000000     
  0.500000000000000     
  0.500000000000000     
  0.500000000000000     
  0.500000000000000     
  0.500000000000000     
  0.500000000000000     
  0.500000000000000     
  0.500000000000000     
  0.500000000000000     
  0.500000000000000     
  0.500000000000000     
  0.500000000000000     
  0.500000000000000     
  0.500000000000000     
  0.500000000000000     
  0.500000000000000     
  0.500000000000000     
  0.500000000000000     
  0.500000000000000     
  0.500000000000000     
  0.500000000000000     
  0.500000000000000     
  0.500000000000000     
  0.500000000000000     
  0.500000000000000     
  0.500000000000000     
  0.500000000000000     
  0.500000000000000     
  0.500000000000000     
  0.500000000000000     
  0.500000000000000     
  0.500000000000000     
  0.500000000000000     
  0.500000000000000     
  0.500000000000000     
  0.500000000000000     
  0.500000000000000     
  0.500000000000000     
  0.500000000000000     
  0.500000000000000     
  0.500000000000000     
  0.500000000000000     
  0.500000000000000     
  0.500000000000000     
  0.500000000000000     
  0.500000000000000     
  0.500000000000000     
  0.500000000000000     
  0.500000000000000     
  0.500000000000000     
  0.500000000000000     
  0.500000000000000     
  0.500000000000000     
  0.500000000000000     
  0.500000000000000     
  0.500000000000000     
  0.500000000000000     
  0.500000000000000     
  0.500000000000000     
  0.500000000000000     
  0.500000000000000     
  0.500000000000000     
  0.500000000000000     
  0.500000000000000     
  0.500000000000000     
  0.500000000000000     
  0.500000000000000     
  0.500000000000000     
  0.500000000000000     
  0.500000000000000     
  0.500000000000000     
  0.500000000000000     
  0.500000000000000     
  0.500000000000000     
  0.500000000000000     
  0.500000000000000     
  0.500000000000000     
  0.500000000000000     
  0.500000000000000     
  0.500000000000000     
  0.500000000000000     
  0.500000000000000     
  0.500000000000000     
  0.500000000000000     
  0.500000000000000     
  0.500000000000000     
  0.500000000000000     
  0.500000000000000     
  0.500000000000000     
  0.500000000000000     
  0.500000000000000     
  0.500000000000000     
  0.500000000000000     
  0.500000000000000     
  0.500000000000000     
  0.500000000000000     
  0.500000000000000     
  0.500000000000000     
  0.500000000000000     
  0.500000000000000     
  0.500000000000000     
  0.500000000000000     
  0.500000000000000     
  0.500000000000000     
  0.500000000000000     
  0.500000000000000     
  0.500000000000000     
  0.500000000000000     
  0.500000000000000     
  0.500000000000000     
  0.500000000000000     
  0.500000000000000     
  0.500000000000000     
  0.500000000000000     
  0.500000000000000     
  0.500000000000000     
  0.500000000000000     
  0.500000000000000     
  0.500000000000000     
  0.500000000000000     
  0.500000000000000     
  0.500000000000000     
  0.500000000000000     
  0.500000000000000     
  0.500000000000000     
  0.500000000000000     
  0.500000000000000     
  0.500000000000000     
  0.500000000000000     
  0.500000000000000     
  0.500000000000000     
  0.500000000000000     
  0.500000000000000     
  0.500000000000000     
  0.500000000000000     
  0.500000000000000     
  0.500000000000000     
  0.500000000000000     
  0.500000000000000     
  0.500000000000000     
  0.500000000000000     
  0.500000000000000     
  0.500000000000000     
  0.500000000000000     
  0.500000000000000     
  0.500000000000000     
  0.500000000000000     
  0.500000000000000     
  0.500000000000000     
  0.500000000000000     
  0.500000000000000     
  0.500000000000000     
  0.500000000000000     
  0.500000000000000     
  0.500000000000000     
  0.500000000000000     
  0.500000000000000     
  0.500000000000000     
  0.500000000000000     
  0.500000000000000     
  0.500000000000000     
  0.500000000000000     
  0.500000000000000     
  0.500000000000000     
  0.500000000000000     
  0.500000000000000     
  0.500000000000000     
  0.500000000000000     
  0.500000000000000     
  0.500000000000000     
  0.500000000000000     
  0.500000000000000     
  0.500000000000000     
  0.500000000000000     
  0.500000000000000     
  0.500000000000000     
  0.500000000000000     
  0.500000000000000     
  0.500000000000000     
  0.500000000000000     
  0.500000000000000     
  0.500000000000000     
  0.500000000000000     
  0.500000000000000     
  0.500000000000000     
  0.500000000000000     
  0.500000000000000     
  0.500000000000000     
  0.500000000000000     
  0.500000000000000     
  0.500000000000000     
  0.500000000000000     
  0.500000000000000     
  0.500000000000000     
  0.500000000000000     
  0.500000000000000     
  0.500000000000000     
  0.500000000000000     
  0.500000000000000     
  0.500000000000000     
  0.500000000000000     
  0.500000000000000     
  0.500000000000000     
  0.500000000000000     
  0.500000000000000     
  0.500000000000000     
  0.500000000000000     
  0.500000000000000     
  0.500000000000000     
  0.500000000000000     
  0.500000000000000     
  0.500000000000000     
  0.500000000000000     
  0.500000000000000     
  0.500000000000000     
  0.500000000000000     
  0.500000000000000     
  0.500000000000000     
  0.500000000000000     
  0.500000000000000     
  0.500000000000000     
  0.500000000000000     
  0.500000000000000     
  0.500000000000000     
  0.500000000000000     
  0.500000000000000     
  0.500000000000000     
  0.500000000000000     
  0.500000000000000     
  0.500000000000000     
  0.500000000000000     
  0.500000000000000     
  0.500000000000000     
  0.500000000000000     
  0.500000000000000     
  0.500000000000000     
  0.500000000000000     
  0.500000000000000     
  0.500000000000000     
  0.500000000000000     
  0.500000000000000     
  0.500000000000000     
  0.500000000000000     
  0.500000000000000     
  0.500000000000000     
  0.500000000000000     
  0.500000000000000     
  0.500000000000000     
  0.500000000000000     
  0.500000000000000     
  0.500000000000000     
  0.500000000000000     
  0.500000000000000     
  0.500000000000000     
  0.500000000000000     
  0.500000000000000     
  0.500000000000000     
  0.500000000000000     
  0.500000000000000     
  0.500000000000000     
  0.500000000000000     
  0.500000000000000     
  0.500000000000000     
  0.500000000000000     
  0.500000000000000     
  0.500000000000000     
  0.500000000000000     
  0.500000000000000     
  0.500000000000000     
  0.500000000000000     
  0.500000000000000     
  0.500000000000000     
  0.500000000000000     
  0.500000000000000     
  0.500000000000000     
  0.500000000000000     
  0.500000000000000     
  0.500000000000000     
  0.500000000000000     
  0.500000000000000     
  0.500000000000000     