# vtk DataFile Version 5.1
Data.vtk
ASCII
DATASET UNSTRUCTURED_GRID
 
POINTS 2000 float
   -0.39  -11.55   -0.47
  -10.69   -8.63    1.65
    6.03  -13.19    2.98
   -1.75  -12.28   -1.64
   -5.91  -12.10    7.49
   -2.45  -11.32   -9.47
   -7.63   -8.54   -6.64
    0.42  -13.65   -8.54
  -11.26   -7.67   -3.33
   -5.34  -12.64   -0.60
   -3.50  -14.07   -4.75
   -6.26  -11.52   -9.50
    1.05  -11.80   -1.60
   -3.87  -12.21    0.68
    1.75  -14.28   -1.72
  -12.33   -6.92    0.89
   -8.60  -10.63    5.29
    4.22  -12.59    4.64
   -2.03  -11.07    5.91
    4.67  -13.73   -5.83
    2.70  -14.25   -1.41
    0.86  -11.29    4.78
   -8.57   -9.17   -9.37
    2.87  -11.60   -5.06
   -1.17  -12.28   -0.79
  -12.43   -7.46   -8.52
    2.77  -14.23    7.09
    0.13  -12.25    7.17
   -8.28  -11.87   -1.05
   -4.51  -13.78    9.50
    4.97  -12.53   -5.20
  -10.26  -10.23   -1.66
  -11.80   -6.34    7.94
   -7.88  -10.97   -2.51
    1.87  -13.89   -5.54
    0.78  -11.09    5.90
  -10.41  -10.09    9.48
   -2.50  -14.10    6.01
   -4.22  -13.87    0.95
   -3.98  -12.24    1.67
   -7.54   -8.81    1.13
    5.49  -13.42   -1.40
   -7.18  -12.60   -8.16
   -0.19  -12.96    0.75
   -6.55  -11.99   -8.65
   -7.11   -8.47    1.97
   -4.64   -9.48    3.57
    1.03  -12.33   -4.27
  -10.87   -7.79    3.45
    2.48  -12.45   -5.40
   -2.92  -10.54   -5.16
   -3.39  -11.48    9.39
   -5.19  -12.74    7.76
   -6.17  -12.32    2.05
   -9.51  -10.95    4.87
   -9.09   -9.96    1.18
  -12.94   -6.34   -7.19
   -2.36  -14.30    2.89
   -0.11  -14.50    1.63
  -10.15   -8.22   -9.26
   -1.06  -14.46   -2.49
   -6.57  -12.93   -9.50
   -1.63  -11.97    7.03
    1.53  -11.59    2.98
   -2.86  -10.86    0.46
   -4.48  -12.95    0.35
    3.66  -13.11   -4.32
   -7.93  -11.09    3.72
    4.56  -12.27   -2.29
   -7.94   -9.96   -2.48
  -11.03   -9.41    8.16
    4.02  -11.77   -6.94
   -2.18  -11.13   -3.15
  -10.57   -9.92    6.25
  -12.81   -6.79    4.17
    3.78  -14.00   -8.44
  -11.98   -6.29    6.96
   -2.99   -9.80   -4.44
   -5.22  -12.52    2.30
  -13.10   -6.21   -2.33
   -2.70   -9.84    7.90
  -12.47   -7.41    6.13
    1.51  -12.83   -2.40
  -11.54   -5.79   -5.88
    2.24  -12.62   -7.14
   -5.37  -10.77   -4.86
    4.57  -13.66    2.21
   -9.75   -9.21   -5.96
   -6.25  -13.07   -0.08
   -7.45   -9.66    5.63
   -5.22  -11.63    0.00
    0.59  -11.49   -7.70
   -6.30  -13.06   -3.65
   -7.27  -12.55    9.50
   -2.88  -10.31    2.17
   -9.62  -10.85   -3.43
   -1.37  -14.43    2.92
   -3.85  -13.17    5.84
   -2.99   -9.99   -1.14
   -6.39  -13.01   -1.79
    3.50  -12.04    1.68
   -9.79   -9.23   -3.31
   -9.02  -11.32    1.38
  -12.78   -6.80    7.38
   -2.68  -14.24    1.95
  -12.67   -5.49   -7.76
   -3.49  -10.65    4.03
   -7.24  -12.56   -3.69
    5.25  -12.98    8.76
   -0.08  -13.01    3.74
   -6.74  -12.76    7.81
   -2.96  -13.18   -2.45
   -6.50   -9.37   -2.65
   -4.51   -9.81   -6.63
   -0.52  -11.16    2.02
   -6.50   -9.17   -7.71
   -0.19  -14.50    0.57
   -8.10  -12.03   -8.02
    4.59  -11.61    2.81
   -7.09  -11.57    9.42
   -3.22   -9.85    5.57
  -12.24   -7.77    9.50
    0.51  -12.60    8.76
  -10.23   -9.86    4.00
   -6.76  -12.82    0.75
  -13.10   -6.21   -4.23
   -2.21  -10.13   -3.05
    4.22  -13.87    3.37
    0.44  -11.10   -5.60
   -4.84   -8.99   -7.10
   -3.41  -12.52   -3.62
   -8.70  -11.60    3.33
  -10.65   -8.79   -0.61
  -10.40  -10.09    0.61
   -5.08  -11.82   -7.75
    1.93  -12.34    6.69
    4.12  -13.05   -5.34
    4.65  -12.86   -3.25
   -8.69   -8.30    8.55
    1.87  -11.87    1.65
   -8.80  -10.38   -2.88
    4.12  -13.90    4.38
   -4.18  -12.37   -6.75
   -6.39  -13.02    9.40
   -8.64  -11.65    6.25
    2.94  -13.25    9.50
   -2.45  -13.13    5.75
  -11.78   -5.18   -9.48
   -0.20  -11.35   -4.75
    1.70  -11.99   -8.80
   -5.58  -11.36    4.70
   -8.18  -11.97   -2.04
   -7.89  -12.17    5.51
   -9.83  -10.63   -6.08
    4.24  -12.95   -6.36
    1.64  -14.41    1.84
    0.43  -14.49    2.49
  -12.68   -5.83    6.14
   -3.84  -13.18    7.71
   -7.11   -8.54    3.80
   -6.90  -12.75   -7.21
  -11.79   -6.39    4.69
    1.33  -11.12   -6.95
   -5.05   -9.66    0.04
   -7.72  -10.23   -7.93
   -9.61  -10.86    2.08
    2.12  -13.49   -2.84
    2.87  -13.39   -7.04
   -9.90   -7.74   -1.49
   -7.74  -11.18   -7.62
   -1.54  -10.39    0.70
   -8.93  -10.46   -8.19
   -5.09  -10.38    7.71
   -9.19  -11.21   -6.59
   -1.23  -13.71    5.50
  -10.76   -9.71   -0.97
   -3.01  -11.39    8.41
   -8.01  -10.99    9.50
   -9.14  -11.25   -5.26
   -1.00  -13.25   -0.50
   -0.40  -14.49   -9.50
  -12.13   -6.53    1.80
   -4.60   -9.46   -0.89
   -8.24   -9.83   -8.70
   -3.93  -11.16    8.08
   -3.07  -10.80   -2.83
   -3.10  -14.16   -6.50
    4.24  -12.14   -5.77
   -3.02  -14.18    6.86
    4.62  -13.21   -1.89
   -3.88  -12.98   -2.78
    2.01  -12.57    4.43
   -2.48  -10.82    7.77
   -3.49  -12.11   -9.50
  -11.32   -7.58   -4.32
   -6.26   -9.38    4.89
  -12.60   -7.17   -9.47
    0.16  -10.96   -3.52
    4.59  -13.75   -0.50
   -8.68   -9.59   -1.51
   -8.04   -9.63    4.82
   -6.23   -8.47    8.16
   -1.47  -11.27   -4.15
   -1.04  -12.98   -1.49
    2.98  -13.28    2.25
    0.71  -13.54   -9.50
   -8.11   -8.93   -4.84
   -8.91  -11.42    9.50
  -13.56   -5.14   -7.43
   -4.46  -12.05   -8.73
   -7.82  -11.21    6.71
   -1.45  -10.62   -6.72
   -9.84   -9.61    2.83
    2.09  -12.91   -3.74
  -13.03   -6.36   -9.08
  -11.08   -7.06    0.11
  -11.33   -7.94    1.03
    4.78  -13.09    5.30
   -3.27  -12.45   -7.35
    0.48  -14.49   -5.81
  -12.27   -5.36    7.27
   -6.71  -10.20    5.22
   -5.25  -13.15   -8.61
   -3.47  -13.56   -3.49
   -2.37  -10.21    9.50
   -3.35   -9.70    8.69
   -2.85  -14.22   -9.50
   -2.76   -9.98   -2.22
   -5.27  -11.59    9.50
   -1.28  -11.64   -8.57
    4.67  -13.73   -3.75
   -3.12  -11.52    4.37
   -0.40  -13.04   -7.15
   -4.65  -11.94    7.49
   -0.24  -14.48   -8.51
    0.80  -14.47   -3.11
   -9.12  -11.25    0.39
  -11.75   -8.22    1.91
   -1.50  -11.58    2.69
   -2.75  -13.45   -7.62
   -3.43  -14.09    5.39
   -7.57   -7.89    3.15
   -3.83  -13.00   -9.20
   -2.33  -11.84   -8.63
  -11.15   -7.41    4.39
   -5.16  -13.55    1.02
   -5.08  -11.37   -9.46
  -12.98   -6.03   -1.04
  -11.15   -6.34    8.73
   -1.93  -11.45    8.40
   -0.75  -13.73   -3.10
   -8.89  -11.27   -9.50
   -8.45   -9.58   -7.72
    3.41  -12.64    7.32
   -5.47   -9.04    3.89
   -0.55  -11.74    2.95
   -6.53   -8.33   -9.37
    4.68  -12.04    1.36
   -4.35  -13.83   -7.51
   -5.60  -11.30   -0.88
   -4.95   -9.22   -9.34
   -9.21   -8.33   -5.84
   -4.84  -13.67    7.87
  -12.69   -6.53    8.45
   -1.30  -14.44   -8.17
    2.06  -11.31   -2.38
    2.30  -11.47    0.84
  -13.11   -5.98    9.32
   -1.31  -12.65   -6.99
   -6.01  -11.15   -8.60
   -6.31  -11.83   -0.36
   -2.00  -13.53    0.92
    2.84  -13.74   -8.64
    1.21  -11.05   -2.86
   -6.81   -9.49   -6.80
    1.82  -13.51    9.38
   -4.05  -11.30    3.36
   -7.44   -8.71    5.33
   -8.66   -8.45   -8.08
    1.55  -14.42   -0.57
   -0.34  -13.67    6.25
    2.42  -11.64    5.25
   -5.46  -10.18   -4.06
   -6.76   -9.60    9.15
   -5.71  -13.33   -2.46
  -12.35   -7.24    5.15
   -0.25  -13.58   -1.46
   -5.29  -11.26    7.14
  -11.55   -7.01   -8.00
   -4.81   -8.97    1.65
    2.09  -13.34    2.72
  -13.22   -5.68    8.34
  -10.34  -10.14   -3.19
   -6.72  -10.51   -6.03
  -10.72   -8.42    8.01
   -7.09  -10.47    0.22
    2.05  -11.22   -5.48
   -8.74   -9.27    6.88
    2.64  -12.91    5.26
    5.31  -13.49   -4.94
    3.71  -13.16   -0.34
    2.25  -11.51    3.68
   -3.48  -13.15    2.96
  -12.29   -7.69   -1.83
   -5.59   -9.36   -0.75
    1.45  -11.83    5.85
  -10.03   -7.89    6.30
    3.14  -13.29   -6.06
   -6.66  -12.85   -2.74
  -10.19   -8.91    9.50
   -5.57  -10.74   -5.84
   -7.77  -10.28    6.34
  -10.05  -10.36   -0.69
   -4.36  -13.80   -1.40
   -6.93   -9.24   -5.81
   -4.50   -9.83   -3.47
   -4.47  -10.09   -9.38
  -13.25   -5.29   -1.97
    1.03  -14.46    6.18
   -7.41  -11.50   -8.51
    1.44  -12.01   -7.61
  -11.27   -8.83   -5.70
    0.53  -12.65   -2.29
    0.98  -12.46   -3.25
   -9.87  -10.59   -5.08
  -12.87   -6.67    0.02
   -7.05  -12.61    5.00
   -7.02   -8.04    4.71
   -1.89  -13.62   -6.77
    2.15  -12.81    1.87
  -11.55   -8.77   -3.04
    0.94  -12.77   -0.43
    5.64  -13.36    2.05
   -1.51  -13.68   -3.75
    1.34  -13.78    8.55
   -2.76  -14.21   -3.89
   -9.73   -9.65    8.41
    2.07  -14.30    6.37
    0.24  -14.50   -0.54
   -7.70   -9.79   -1.52
  -11.75   -8.49   -4.89
   -3.31   -9.70   -7.94
    0.09  -10.64    4.80
   -4.59  -12.98    6.53
   -1.25  -10.22   -8.88
   -4.17  -12.23   -7.79
  -12.97   -6.49    5.39
   -8.99  -11.36   -2.83
   -1.46  -12.63   -4.10
   -3.18  -14.10    8.55
   -1.52  -14.42   -5.18
   -5.18  -10.56   -8.84
   -0.47  -14.48   -5.50
   -6.34  -13.04    5.57
   -3.68  -11.92   -5.01
  -12.32   -7.64    7.09
   -5.19   -9.51   -2.62
    4.01  -11.81    6.42
  -11.66   -7.94    5.34
   -7.39  -12.47   -9.13
    3.90  -12.86    8.73
    1.46  -12.30    8.90
  -11.95   -6.75   -5.78
   -4.59  -11.25    8.84
    1.03  -10.74    3.46
   -5.49  -13.42    1.96
   -6.02  -13.19    7.28
    3.46  -12.60   -6.88
  -12.02   -7.62   -5.29
  -13.98   -3.86    9.22
   -0.74  -11.87   -3.82
   -9.25   -8.56   -8.95
   -5.64   -8.69   -2.96
   -4.36  -12.06    9.50
  -10.11  -10.36   -4.14
    1.19  -14.45    4.09
   -3.77   -9.55    4.05
  -12.45   -7.06   -2.59
   -6.81  -11.87   -4.27
   -9.73  -10.75   -9.33
   -0.53  -10.66   -7.67
  -12.02   -8.11   -3.81
   -4.78  -12.96   -6.20
   -5.88  -10.65    5.57
   -5.64  -13.36   -9.50
  -10.27   -7.26   -9.50
  -12.11   -7.97   -2.83
   -2.73  -10.98    1.44
    0.17  -14.50   -7.59
  -11.01   -7.09   -8.84
    2.21  -12.56    9.50
   -2.88   -9.92    3.72
  -12.58   -7.19   -7.57
   -6.25   -8.56    4.30
  -11.67   -8.56    9.27
   -2.00  -10.69    2.69
[...]
POINT_DATA 2000
SCALARS radius float
LOOKUP_TABLE default
  0.500000000000000     
  0.500000000000000     
  0.500000000000000     
  0.500000000000000     
  0.500000000000000     
  0.500000000000000     
  0.500000000000000     
  0.500000000000000     
  0.500000000000000     
  0.500000000000000     
  0.500000000000000     
  0.500000000000000     
  0.500000000000000     
  0.500000000000000     
  0.500000000000000     
  0.500000000000000     
  0.500000000000000     
  0.500000000000000     
  0.500000000000000     
  0.500000000000000     
  0.500000000000000     
  0.500000000000000     
  0.500000000000000     
  0.500000000000000     
  0.500000000000000     
  0.500000000000000     
  0.500000000000000     
  0.500000000000000     
  0.500000000000000     
  0.500000000000000     
  0.500000000000000     
  0.500000000000000     
  0.500000000000000     
  0.500000000000000     
  0.500000000000000     
  0.500000000000000     
  0.500000000000000     
  0.500000000000000     
  0.500000000000000     
  0.500000000000000     
  0.500000000000000     
  0.500000000000000     
  0.500000000000000     
  0.500000000000000     
  0.500000000000000     
  0.500000000000000     
  0.500000000000000     
  0.500000000000000     
  0.500000000000000     
  0.500000000000000     
  0.500000000000000     
  0.500000000000000     
  0.500000000000000     
  0.500000000000000     
  0.500000000000000     
  0.500000000000000     
  0.500000000000000     
  0.500000000000000     
  0.500000000000000     
  0.500000000000000     
  0.500000000000000     
  0.500000000000000     
  0.500000000000000     
  0.500000000000000     
  0.500000000000000     
  0.500000000000000     
  0.500000000000000     
  0.500000000000000     
  0.500000000000000     
  0.500000000000000     
  0.500000000000000     
  0.500000000000000     
  0.500000000000000     
  0.500000000000000     
  0.500000000000000     
  0.500000000000000     
  0.500000000000000     
  0.500000000000000     
  0.500000000000000     
  0.500000000000000     
  0.500000000000000     
  0.500000000000000     
  0.500000000000000     
  0.500000000000000     
  0.500000000000000     
  0.500000000000000     
  0.500000000000000     
  0.500000000000000     
  0.500000000000000     
  0.500000000000000     
  0.500000000000000     
  0.500000000000000     
  0.500000000000000     
  0.500000000000000     
  0.500000000000000     
  0.500000000000000     
  0.500000000000000     
  0.500000000000000     
  0.500000000000000     
  0.500000000000000     
  0.500000000000000     
  0.500000000000000     
  0.500000000000000     
  0.500000000000000     
  0.500000000000000     
  0.500000000000000     
  0.500000000000000     
  0.500000000000000     
  0.500000000000000     
  0.500000000000000     
  0.500000000000000     
  0.500000000000000     
  0.500000000000000     
  0.500000000000000     
  0.500000000000000     
  0.500000000000000     
  0.500000000000000     
  0.500000000000000     
  0.500000000000000     
  0.500000000000000     
  0.500000000000000     
  0.500000000000000     
  0.500000000000000     
  0.500000000000000     
  0.500000000000000     
  0.500000000000000     
  0.500000000000000     
  0.500000000000000     
  0.500000000000000     
  0.500000000000000     
  0.500000000000000     
  0.500000000000000     
  0.500000000000000     
  0.500000000000000     
  0.500000000000000     
  0.500000000000000     
  0.500000000000000     
  0.500000000000000     
  0.500000000000000     
  0.500000000000000     
  0.500000000000000     
  0.500000000000000     
  0.500000000000000     
  0.500000000000000     
  0.500000000000000     
  0.500000000000000     
  0.500000000000000     
  0.500000000000000     
  0.500000000000000     
  0.500000000000000     
  0.500000000000000     
  0.500000000000000     
  0.500000000000000     
  0.500000000000000     
  0.500000000000000     
  0.500000000000000     
  0.500000000000000     
  0.500000000000000     
  0.500000000000000     
  0.500000000000000     
  0.500000000000000     
  0.500000000000000     
  0.500000000000000     
  0.500000000000000     
  0.500000000000000     
  0.500000000000000     
  0.500000000000000     
  0.500000000000000     
  0.500000000000000     
  0.500000000000000     
  0.500000000000000     
  0.500000000000000     
  0.500000000000000     
  0.500000000000000     
  0.500000000000000     
  0.500000000000000     
  0.500000000000000     
  0.500000000000000     
  0.500000000000000     
  0.500000000000000     
  0.500000000000000     
  0.500000000000000     
  0.500000000000000     
  0.500000000000000     
  0.500000000000000     
  0.500000000000000     
  0.500000000000000     
  0.500000000000000     
  0.500000000000000     
  0.500000000000000     
  0.500000000000000     
  0.500000000000000     
  0.500000000000000     
  0.500000000000000     
  0.500000000000000     
  0.500000000000000     
  0.500000000000000     
  0.500000000000000     
  0.500000000000000     
  0.500000000000000     
  0.500000000000000     
  0.500000000000000     
  0.500000000000000     
  0.500000000000000     
  0.500000000000000     
  0.500000000000000     
  0.500000000000000     
  0.500000000000000     
  0.500000000000000     
  0.500000000000000     
  0.500000000000000     
  0.500000000000000     
  0.500000000000000     
  0.500000000000000     
  0.500000000000000     
  0.500000000000000     
  0.500000000000000     
  0.500000000000000     
  0.500000000000000     
  0.500000000000000     
  0.500000000000000     
  0.500000000000000     
  0.500000000000000     
  0.500000000000000     
  0.500000000000000     
  0.500000000000000     
  0.500000000000000     
  0.500000000000000     
  0.500000000000000     
  0.500000000000000     
  0.500000000000000     
  0.500000000000000     
  0.500000000000000     
  0.500000000000000     
  0.500000000000000     
  0.500000000000000     
  0.500000000000000     
  0.500000000000000     
  0.500000000000000     
  0.500000000000000     
  0.500000000000000     
  0.500000000000000     
  0.500000000000000     
  0.500000000000000     
  0.500000000000000     
  0.500000000000000     
  0.500000000000000     
  0.500000000000000     
  0.500000000000000     
  0.500000000000000     
  0.500000000000000     
  0.500000000000000     
  0.500000000000000     
  0.500000000000000     
  0.500000000000000     
  0.500000000000000     
  0.500000000000000     
  0.500000000000000     
  0.500000000000000     
  0.500000000000000     
  0.500000000000000     
  0.500000000000000     
  0.500000000000000     
  0.500000000000000     
  0.500000000000000     
  0.500000000000000     
  0.500000000000000     
  0.500000000000000     
  0.500000000000000     
  0.500000000000000     
  0.500000000000000     
  0.500000000000000     
  0.500000000000000     
  0.500000000000000     
  0.500000000000000     
  0.500000000000000     
  0.500000000000000     
  0.500000000000000     
  0.500000000000000     
  0.500000000000000     
  0.500000000000000     
  0.500000000000000     
  0.500000000000000     
  0.500000000000000     
  0.500000000000000     
  0.500000000000000     
  0.500000000000000     
  0.500000000000000     
  0.500000000000000     
  0.500000000000000     
  0.500000000000000     
  0.500000000000000     
  0.500000000000000     
  0.500000000000000     
  0.500000000000000     
  0.500000000000000     
  0.500000000000000     
  0.500000000000000     
  0.500000000000000     
  0.500000000000000     
  0.500000000000000     
  0.500000000000000     
  0.500000000000000     
  0.500000000000000     
  0.500000000000000     
  0.500000000000000     
  0.500000000000000     
  0.500000000000000     
  0.500000000000000     
  0.500000000000000     
  0.500000000000000     
  0.500000000000000     
  0.500000000000000     
  0.500000000000000     
  0.500000000000000     
  0.500000000000000     
  0.500000000000000     
  0.500000000000000     
  0.500000000000000     
  0.500000000000000     
  0.500000000000000     
  0.500000000000000     
  0.500000000000000     
  0.500000000000000     
  0.500000000000000     
  0.500000000000000     
  0.500000000000000     
  0.500000000000000     
  0.500000000000000     
  0.500000000000000     
  0.500000000000000     
  0.500000000000000     
  0.500000000000000     
  0.500000000000000     
  0.500000000000000     
  0.500000000000000     
  0.500000000000000     
  0.500000000000000     
  0.500000000000000     
  0.500000000000000     
  0.500000000000000     
  0.500000000000000     
  0.500000000000000     
  0.500000000000000     
  0.500000000000000     
  0.500000000000000     
  0.500000000000000     
  0.500000000000000     
  0.500000000000000     
  0.500000000000000     
  0.500000000000000     
  0.500000000000000     
  0.500000000000000     
  0.500000000000000     
  0.500000000000000     
  0.500000000000000     
  0.500000000000000     
  0.500000000000000     
  0.500000000000000     
  0.500000000000000     
  0.500000000000000     
  0.500000000000000     
  0.500000000000000     
  0.500000000000000     
  0.500000000000000     
  0.500000000000000     
  0.500000000000000     
  0.500000000000000     
  0.500000000000000     
  0.500000000000000     
  0.500000000000000     
  0.500000000000000     
  0.500000000000000     
  0.500000000000000     
  0.500000000000000     
  0.500000000000000     
  0.500000000000000     
  0.500000000000000     
  0.500000000000000     
  0.500000000000000     
  0.500000000000000     
  0.500000000000000     
  0.500000000000000     
  0.500000000000000     
  0.500000000000000     
  0.500000000000000     
  0.500000000000000     
  0.500000000000000     
  0.500000000000000     
  0.500000000000000     
  0.500000000000000     
  0.500000000000000     
  0.500000000000000     
  0.500000000000000     
  0.500000000000000     
  0.500000000000000     
  0.500000000000000     
  0.500000000000000     
  0.500000000000000     
  0.500000000000000     
  0.500000000000000     
  0.500000000000000     
  0.500000000000000     
  0.500000000000000     
  0.500000000000000     
  0.500000000000000     
  0.500000000000000     
  0.500000000000000     
  0.500000000000000     
  0.500000000000000     
  0.500000000000000     
  0.500000000000000     
  0.500000000000000     
  0.500000000000000     
  0.500000000000000     
  0.500000000000000     
  0.500000000000000     
  0.500000000000000     
  0.500000000000000     
  0.500000000000000     
  0.500000000000000     
  0.500000000000000     
  0.500000000000000     
  0.500000000000000     
  0.500000000000000     
  0.500000000000000     
  0.500000000000000     
  0.500000000000000     
  0.500000000000000     
  0.500000000000000     
  0.500000000000000     
  0.500000000000000     
  0.500000000000000     
  0.500000000000000     
  0.500000000000000     
  0.500000000000000     
  0.500000000000000     
  0.500000000000000     
  0.500000000000000     
  0.500000000000000     
  0.500000000000000     
  0.500000000000000     
  0.500000000000000     
  0.500000000000000     
  0.500000000000000     
  0.500000000000000     
  0.500000000000000     
  0.500000000000000     
  0.500000000000000     
  0.500000000000000     
  0.500000000000000     
  0.500000000000000     
  0.500000000000000     
  0.500000000000000     
  0.500000000000000     
  0.500000000000000     
  0.500000000000000     
  0.500000000000000     
  0.500000000000000     
  0.500000000000000     
  0.500000000000000     
  0.500000000000000     
  0.500000000000000     
  0.500000000000000     
  0.500000000000000     
  0.500000000000000     
  0.500000000000000     
  0.500000000000000     
  0.500000000000000     
  0.500000000000000     
  0.500000000000000     
  0.500000000000000     
  0.500000000000000     
  0.500000000000000     
  0.500000000000000     
  0.500000000000000     
  0.500000000000000     
  0.500000000000000     
  0.500000000000000     
  0.500000000000000     
  0.500000000000000     
  0.500000000000000     
  0.500000000000000     
  0.500000000000000     
  0.500000000000000     
  0.500000000000000     
  0.500000000000000     
  0.500000000000000     
  0.500000000000000     
  0.500000000000000     
  0.500000000000000     
  0.500000000000000     
  0.500000000000000     
  0.500000000000000     
  0.500000000000000     
  0.500000000000000     
  0.500000000000000     
  0.500000000000000     
  0.500000000000000     
  0.500000000000000     
  0.500000000000000     
  0.500000000000000     
  0.500000000000000     
  0.500000000000000     
  0.500000000000000     
  0.500000000000000     
  0.500000000000000     
  0.500000000000000     
  0.500000000000000     
  0.500000000000000     
  0.500000000000000     
  0.500000000000000     
  0.500000000000000     
  0.500000000000000     
  0.500000000000000     
  0.500000000000000     
  0.500000000000000     
  0.500000000000000     
  0.500000000000000     
  0.500000000000000     
  0.500000000000000     
  0.500000000000000     
  0.500000000000000     
  0.500000000000000     
  0.500000000000000     
  0.500000000000000     
  0.500000000000000     
  0.500000000000000     
  0.500000000000000     
  0.500000000000000     
  0.500000000000000     
  0.500000000000000     
  0.500000000000000     
  0.500000000000000     
  0.500000000000000     
  0.500000000000000     
  0.500000000000000     
  0.500000000000000     
  0.500000000000000     
  0.500000000000000     
  0.500000000000000     
  0.500000000000000     
  0.500000000000000     
  0.500000000000000     
  0.500000000000000     
  0.500000000000000     
  0.500000000000000     
  0.500000000000000     
  0.500000000000000     
  0.500000000000000     
  0.500000000000000     
  0.500000000000000     
  0.500000000000000     
  0.500000000000000     
  0.500000000000000     
  0.500000000000000     
  0.500000000000000     
  0.500000000000000     
  0.500000000000000     
  0.500000000000000     
  0.500000000000000     
  0.500000000000000     
  0.500000000000000     
  0.500000000000000     
  0.500000000000000     
  0.500000000000000     
  0.500000000000000     
  0.500000000000000     
  0.500000000000000     
  0.500000000000000     
  0.500000000000000     
  0.500000000000000     
  0.500000000000000     
  0.500000000000000     
  0.500000000000000     
  0.500000000000000     
  0.500000000000000     
  0.500000000000000     
  0.500000000000000     
  0.500000000000000     
  0.500000000000000     
  0.500000000000000     
  0.500000000000000     
  0.500000000000000     
  0.500000000000000     
  0.500000000000000     
  0.500000000000000     
  0.500000000000000     
  0.500000000000000     
  0.500000000000000     
  0.500000000000000     
  0.500000000000000     
  0.500000000000000     
  0.500000000000000     
  0.500000000000000     
  0.500000000000000     
  0.500000000000000     
  0.500000000000000     
  0.500000000000000     
  0.500000000000000     
  0.500000000000000     
  0.500000000000000     
  0.500000000000000     
  0.500000000000000     
  0.500000000000000     
  0.500000000000000     
  0.500000000000000     
  0.500000000000000     
  0.500000000000000     
  0.500000000000000     
  0.500000000000000     
  0.500000000000000     
  0.500000000000000     
  0.500000000000000     
  0.500000000000000     
  0.500000000000000     
  0.500000000000000     
  0.500000000000000     
  0.500000000000000     
  0.500000000000000     
  0.500000000000000     
  0.500000000000000     
  0.500000000000000     
  0.500000000000000     
  0.500000000000000     
  0.500000000000000     
  0.500000000000000     
  0.500000000000000     
  0.500000000000000     
  0.500000000000000     
  0.500000000000000     
  0.500000000000000     
  0.500000000000000     
  0.500000000000000     
  0.500000000000000     
  0.500000000000000     
  0.500000000000000     
  0.500000000000000     
  0.500000000000000     
  0.500000000000000     
  0.500000000000000     
  0.500000000000000     
  0.500000000000000     
  0.500000000000000     
  0.500000000000000     
  0.500000000000000     
  0.500000000000000     
  0.500000000000000     
  0.500000000000000     
  0.500000000000000     
  0.500000000000000     
  0.500000000000000     
  0.500000000000000     
  0.500000000000000     
  0.500000000000000     
  0.500000000000000     
  0.500000000000000     
  0.500000000000000     
  0.500000000000000     
  0.500000000000000     
  0.500000000000000     
  0.500000000000000     
  0.500000000000000     
  0.500000000000000     
  0.500000000000000     
  0.500000000000000     
  0.500000000000000     
  0.500000000000000     
  0.500000000000000     
  0.500000000000000     
  0.500000000000000     
  0.500000000000000     
  0.500000000000000     
  0.500000000000000     
  0.500000000000000     
  0.500000000000000     
  0.500000000000000     
  0.500000000000000     
  0.500000000000000     
  0.500000000000000     
  0.500000000000000     
  0.500000000000000     
  0.500000000000000     
  0.500000000000000     
  0.500000000000000     
  0.500000000000000     
  0.500000000000000     
  0.500000000000000     
  0.500000000000000     
  0.500000000000000     
  0.500000000000000     
  0.500000000000000     
  0.500000000000000     
  0.500000000000000     
  0.500000000000000     
  0.500000000000000     
  0.500000000000000     
  0.500000000000000     
  0.500000000000000     
  0.500000000000000     
  0.500000000000000     
  0.500000000000000     
  0.500000000000000     
  0.500000000000000     
  0.500000000000000     
  0.500000000000000     
  0.500000000000000     
  0.500000000000000     
  0.500000000000000     
  0.500000000000000     
  0.500000000000000     
  0.500000000000000     
  0.500000000000000     
  0.500000000000000     
  0.500000000000000     
  0.500000000000000     
  0.500000000000000     
  0.500000000000000     
  0.500000000000000     
  0.500000000000000     
  0.500000000000000     
  0.500000000000000     
  0.500000000000000     
  0.500000000000000     
  0.500000000000000     
  0.500000000000000     
  0.500000000000000     
  0.500000000000000     
  0.500000000000000     
  0.500000000000000     
  0.500000000000000     
  0.500000000000000     
  0.500000000000000     
  0.500000000000000     
  0.500000000000000     
  0.500000000000000     
  0.500000000000000     
  0.500000000000000     
  0.500000000000000     
  0.500000000000000     
  0.500000000000000     
  0.500000000000000     
  0.500000000000000     
  0.500000000000000     
  0.500000000000000     
  0.500000000000000     
  0.500000000000000     
  0.500000000000000     
  0.500000000000000     
  0.500000000000000     
  0.500000000000000     
  0.500000000000000     
  0.500000000000000     
  0.500000000000000     
  0.500000000000000     
  0.500000000000000     
  0.500000000000000     
  0.500000000000000     
  0.500000000000000     
  0.500000000000000     
  0.500000000000000     
  0.500000000000000     
  0.500000000000000     
  0.500000000000000     
  0.500000000000000     
  0.500000000000000     
  0.500000000000000     
  0.500000000000000     
  0.500000000000000     
  0.500000000000000     
  0.500000000000000     
  0.500000000000000     
  0.500000000000000     
  0.500000000000000     
  0.500000000000000     
  0.500000000000000     
  0.500000000000000     
  0.500000000000000     
  0.500000000000000     
  0.500000000000000     
  0.500000000000000     
  0.500000000000000     
  0.500000000000000     
  0.500000000000000     
  0.500000000000000     
  0.500000000000000     
  0.500000000000000     
  0.500000000000000     
  0.500000000000000     
  0.500000000000000     
  0.500000000000000     
  0.500000000000000     
  0.500000000000000     
  0.500000000000000     
  0.500000000000000     
  0.500000000000000     
  0.500000000000000     