# vtk DataFile Version 5.1
Data.vtk
ASCII
DATASET UNSTRUCTURED_GRID
 
POINTS 2000 float
   -2.55  -13.41    0.64
    6.60  -11.95   -0.52
   -4.63  -13.74    5.74
   -2.78  -13.37   -1.73
   -6.96  -10.19    7.27
   -3.38  -13.32   -8.75
    1.06  -11.28   -8.54
   -4.92  -12.29   -8.62
    1.57  -11.57   -3.91
    3.96  -12.98    0.87
   -5.32  -12.16   -0.99
   -3.44  -14.09   -8.11
    0.33  -13.37    0.32
   -3.47  -13.28    2.99
   -0.49  -13.06   -0.90
    3.22  -11.92    2.03
    2.23  -11.49    5.47
   -2.03  -13.67    7.58
    9.16  -11.24    8.05
   -2.13  -13.50   -3.85
   -2.47  -14.29   -1.49
    7.13  -12.63    6.89
   -4.72  -10.61   -8.77
    4.69  -13.72   -7.33
    2.85  -13.45    1.67
   -5.76  -10.66   -0.08
   -1.19  -14.45    9.50
   -2.50  -12.22    7.43
   -9.56   -9.29    1.64
   -9.20  -11.21    4.17
   -2.31  -14.31   -3.29
    0.41  -11.44   -0.89
   -1.26  -10.98    4.84
   -0.22  -13.78   -3.16
   -8.14  -12.00   -3.73
    1.67  -13.69    8.02
   -3.59  -12.57    7.26
   -4.51  -12.10    5.95
   -2.68  -11.08    0.80
   -2.76  -13.65    3.69
    5.61  -10.47    4.88
   -6.99  -12.70   -0.25
   -7.69   -9.97   -6.06
   -2.42  -14.30    2.11
  -11.96   -8.20   -7.07
   -3.07  -10.12    8.07
    2.18  -11.90    4.56
   -0.35  -12.76   -5.62
    6.50  -10.75    6.80
   -0.13  -12.53   -9.50
    2.30  -13.47   -8.41
  -10.45   -8.84    9.50
   -1.12  -11.36    6.67
    4.15  -12.85    2.76
   -2.41  -11.03    4.94
    3.13  -11.70   -1.62
   -2.31  -11.38   -4.43
   -5.77  -11.13    3.46
   -9.99  -10.51   -0.55
   -8.68  -10.24   -2.70
   -7.44  -10.83   -0.60
   -7.25   -9.95    1.15
   -0.18  -11.64    6.88
    5.36  -13.47    4.40
    4.56  -13.76    2.72
    1.68  -12.88    0.47
   -4.30  -13.85    0.02
    3.94  -13.23    4.13
    0.24  -14.29    0.70
    0.01  -13.52   -6.16
  -12.39   -7.54    7.56
    2.99  -14.19   -7.48
   -3.10  -13.37   -3.65
    1.49  -11.21    4.34
    4.94  -11.20    4.75
   -5.77  -13.30   -6.05
    2.02  -10.63    5.01
   -3.91  -10.23   -8.33
    2.69  -12.76    3.56
    2.43  -11.05   -4.43
    4.03  -10.63    7.21
    2.92  -11.60    6.34
    1.24  -13.68    0.05
   -1.45  -11.03   -8.42
    2.88  -14.21   -8.74
    1.49  -12.96   -7.13
   -7.84  -12.20   -0.06
   -1.80  -10.69   -4.96
   -3.56  -11.35    1.20
    5.89  -10.88    7.76
   -3.46  -14.08    0.51
   -0.54  -11.97   -7.48
   -8.24  -10.83   -2.01
   -7.28  -11.49    5.83
    5.34  -13.48    5.77
   -2.55  -11.27   -0.26
   -1.18  -12.06    3.54
   -5.50  -11.55    4.48
    5.69  -13.34   -0.41
   -9.45   -9.74   -1.90
   -6.71  -12.85    4.24
    6.74  -12.01   -4.41
   -1.41  -11.02    3.13
    1.29  -11.04    5.56
   -5.19  -11.15    2.58
   -1.15  -11.48   -6.87
   -7.36  -11.61    8.49
   -0.41  -12.86   -3.51
   -5.65  -13.36    7.04
    1.76  -13.04    3.82
   -9.63   -9.49    7.24
    1.77  -12.65   -1.79
    8.02  -12.08   -3.98
    0.01  -11.18   -6.33
    6.24  -13.09    4.10
    2.61  -11.83   -7.03
   -7.57  -12.37   -1.91
   -6.11  -11.37   -2.91
    6.31  -13.05    7.27
   -7.18  -12.60    9.46
    5.51  -10.82    6.66
   -9.54  -10.92    7.58
    3.32  -12.36    7.04
   -0.36  -11.34    2.34
   -9.50   -9.97    0.68
   -4.36  -10.34   -4.61
    4.90  -11.80   -7.22
   -2.72  -14.24    1.16
    7.28  -11.76   -9.05
    3.41  -11.24   -7.14
   -1.26  -13.82   -4.22
    2.34  -12.35    2.72
   -1.84  -11.60    1.00
    0.77  -10.90    1.07
  -10.45  -10.05   -9.22
   -6.77  -10.83    8.30
   -1.19  -14.45   -6.81
    0.31  -14.50   -5.36
   -4.97  -10.85    9.50
    3.00  -14.19    6.03
    1.38  -13.52   -3.74
   -3.04  -14.18    2.89
   -1.79  -13.15   -2.64
   -7.99  -11.19    6.47
   -5.38  -11.63    6.17
   -2.44  -13.58    8.49
   -2.99  -13.16    6.27
   -4.94  -11.03   -4.16
   -0.37  -13.88   -7.84
   -1.82  -12.69   -8.84
    4.92  -12.81    6.49
   -8.05  -10.55    1.12
   -2.51  -11.75    4.25
    1.21  -11.86   -2.04
   -4.13  -12.11   -5.06
   -7.94  -12.13    2.92
   -6.01  -12.37    4.75
   -5.15  -10.17    5.41
   -8.33  -11.87    8.54
    6.58  -11.33    3.81
   -0.76  -12.30   -4.72
   -2.47  -10.18    6.92
    2.71  -12.57   -8.57
    5.68  -12.67    0.96
   -4.32   -9.96   -9.41
    4.73  -11.84    1.71
   -3.36  -13.53   -0.32
    4.78  -12.82   -8.72
    1.66  -12.07   -0.22
   -6.66  -10.67   -6.35
    6.24  -13.09   -1.21
   -9.84   -9.59   -8.53
    0.66  -10.90    9.25
   -7.03  -10.41   -5.46
   -3.55  -11.26    3.31
    3.31  -11.97   -0.67
   -2.48  -12.01    8.79
  -10.76   -8.56    7.95
   -0.49  -11.55   -1.30
   -0.44  -13.17    2.50
   -1.36  -14.44   -5.77
    2.93  -11.64    1.12
    6.41  -12.16   -1.54
   -1.18  -12.16   -9.50
    2.95  -12.37    9.50
    6.80  -12.77   -5.07
   -4.58  -11.91    0.06
   -2.48  -14.29   -6.75
   -7.71  -12.28    7.83
   -5.08  -13.58   -1.86
    1.17  -13.46   -1.83
   -4.94  -12.99    7.97
    7.53  -11.66    9.42
   -1.00  -14.27   -9.50
   -1.78  -12.10   -5.15
    2.57  -12.70    7.61
   -7.24  -11.18   -7.70
   -1.50  -13.68   -7.37
   -5.27  -12.63   -0.09
    7.74  -12.26   -2.99
    1.69  -11.57    6.31
   -1.18  -10.58    7.30
    5.51  -13.41   -4.02
    1.59  -12.87   -0.82
   -6.21  -13.04    2.59
   -8.06  -10.97   -3.00
    1.48  -11.23   -5.35
   -1.65  -12.63    8.65
    4.02  -11.72   -5.51
    2.93  -11.91   -9.29
   -6.31   -9.70    8.18
   -4.55  -11.84   -9.50
    4.26  -10.64    5.21
   -4.63  -12.72   -2.12
   -8.60   -9.72   -5.27
    6.37  -11.26    1.63
    3.69  -11.02    0.95
   -4.03  -12.20    4.77
  -10.96   -9.49   -6.15
   -8.01  -12.09   -1.04
   -2.29  -10.82    6.17
    6.62  -12.24    7.77
   -8.72  -10.81   -7.31
   -2.17  -11.65   -1.21
    6.33  -12.38    8.75
   -5.12   -9.79    9.50
  -11.24   -9.17   -4.80
    6.60  -12.91   -3.30
   -7.33  -10.60    9.09
   -3.17  -10.28   -9.38
   -5.70  -13.33   -5.04
    0.94  -12.61    5.22
   -1.68  -13.70   -6.37
   -3.49  -10.70    6.25
   -4.54  -13.09   -7.13
   -8.40  -11.82   -1.97
   -9.34  -10.07    2.81
    4.44  -11.52    0.52
   -1.45  -13.72    4.79
   -5.50  -12.00   -7.59
    1.25  -12.34    4.31
   -7.65   -9.47    7.28
   -2.85  -12.78   -9.40
    4.66  -11.40   -9.50
    1.67  -12.13    3.42
   -5.65  -11.95    2.17
    0.16  -10.90   -8.31
    5.46  -12.65   -1.96
  -11.04   -9.40    8.92
   -0.75  -11.97    8.88
   -0.59  -12.39    1.28
   -5.68  -13.34   -9.50
   -5.00  -11.39   -8.20
    0.52  -14.49    7.14
    9.38  -11.06    5.96
    1.84  -13.06    5.79
   -5.56  -12.11   -9.37
    2.96  -14.19    4.48
   -1.78  -13.00   -5.61
    0.17  -13.42   -1.77
    8.32  -11.87   -6.89
   -8.06  -10.27   -7.84
  -10.66   -9.83    2.89
   -6.85  -10.77    5.29
   -8.20  -11.93   -5.85
    2.00  -14.33   -6.11
    4.67  -13.73    5.07
   -8.15   -9.52    1.70
   -0.83  -12.83   -8.85
   -6.63  -10.58   -8.82
    0.88  -13.56   -0.88
   -1.89  -12.11    2.83
    6.83  -12.79   -7.86
    6.45  -11.23   -8.33
   -5.78   -9.60   -6.42
    0.34  -12.75    7.93
    4.70  -12.87    3.59
    3.46  -10.97    7.95
    2.38  -12.75   -6.72
   -7.40  -11.36    0.27
   -6.38  -11.69    6.22
    7.31  -12.52    8.61
    1.45  -13.51   -6.26
   -4.12  -10.32    9.50
   -8.62  -10.93    2.17
   -0.01  -11.41    0.49
    0.12  -12.43    0.58
    5.70  -11.90    7.95
    2.06  -12.59   -4.07
    3.21  -11.31    5.43
   -4.57  -12.85    5.29
  -11.82   -8.40    7.67
   -1.95  -12.37   -1.91
    2.69  -12.59   -4.84
    4.65  -11.31    6.81
   -1.00  -13.88   -0.53
    1.08  -14.46   -7.99
    3.97  -11.72    7.45
   -0.29  -14.50    6.56
   -1.19  -14.45   -7.95
   -1.14  -13.05    1.80
    3.05  -14.17    7.48
    3.33  -12.30    2.95
    1.75  -11.80   -1.19
    8.54  -11.01    2.13
    0.18  -12.42    8.86
    4.02  -11.56    4.90
    3.01  -14.18   -6.48
   -1.22  -13.00   -1.62
  -10.07   -9.61    8.98
    0.32  -12.48   -7.47
    5.04  -12.19    4.87
    4.21  -12.11   -0.26
  -11.11   -9.32   -0.03
   -2.72  -11.37   -7.68
    3.33  -11.67   -3.67
    0.36  -11.74   -9.12
    6.42  -11.93   -3.36
   -9.36  -11.07    2.83
   -7.06  -10.19   -7.68
   -2.37  -12.16   -8.20
   -0.35  -11.51   -4.09
   -0.45  -13.50    1.23
   -0.65  -13.29   -4.82
   -7.67   -9.73   -4.46
    8.58  -11.69   -1.61
    0.80  -12.99    3.53
    5.37  -11.07    5.65
   -4.73  -12.13   -6.97
   -6.66  -11.87    4.05
   -0.39  -11.69   -2.28
   -3.72  -13.12    0.52
   -6.10  -13.15   -0.26
    0.72  -12.60   -1.57
    5.33  -12.39    8.76
   -5.98  -12.23    0.48
   -9.23   -8.67    6.82
   -5.28  -13.50    4.08
   -6.40  -11.37    0.18
    5.00  -12.63   -0.59
    1.07  -12.43   -3.96
    7.58  -11.30   -7.22
    6.86  -12.16    6.05
   -3.18  -11.70    4.99
    1.13  -11.80   -7.68
   -2.09  -11.90   -7.08
   -3.54  -10.20    7.15
   -3.89  -11.09    0.29
    0.00  -13.54   -4.11
   -3.77  -14.00    7.43
   -7.98  -12.10   -4.89
   -2.17  -12.03   -9.50
   -7.11  -11.77   -0.60
   -8.43  -10.57    4.11
   -1.38  -12.04   -6.07
    0.90  -11.52    3.59
    3.79  -11.59   -2.79
    4.57  -12.98    9.04
   -8.00   -9.66    5.03
  -10.51   -9.99   -7.04
   -1.19  -10.64    9.50
    3.03  -13.37    9.50
    3.54  -12.37   -4.35
   -0.19  -14.50    9.50
    9.32  -11.11    9.49
   -4.15  -10.58    2.87
   -9.31  -11.12    9.32
    3.97  -13.16   -7.74
   -3.88  -11.12   -4.99
   -5.25   -9.97    7.98
    1.35  -13.95   -7.15
   -9.58   -9.64   -9.50
    3.84  -13.16   -3.81
   -0.65  -13.61    9.50
   -6.40  -10.82   -1.49
   -7.56  -12.32    4.32
    5.30  -11.77    4.00
   -1.49  -11.35   -3.42
    1.08  -12.97   -4.80
   -5.35  -12.92   -7.96
    5.31  -12.05   -9.10
   -1.59  -11.51   -0.40
    3.70  -12.34   -2.13
    5.97  -12.32    6.68
   -5.17  -11.25   -2.59
   -6.74   -9.85   -9.49
    2.55  -12.39   -1.18
    4.13  -13.90    0.26
    0.28  -12.11   -3.44
   -3.00  -10.47   -8.02
    4.29  -13.85    8.64
    6.41  -13.01    5.79
    0.88  -11.78   -4.69
    9.57  -10.90    4.99
   -2.93  -11.45    6.61
    6.12  -12.20    3.63
[...]
POINT_DATA 2000
SCALARS radius float
LOOKUP_TABLE default
  0.500000000000000     
  0.500000000000000     
  0.500000000000000     
  0.500000000000000     
  0.500000000000000     
  0.500000000000000     
  0.500000000000000     
  0.500000000000000     
  0.500000000000000     
  0.500000000000000     
  0.500000000000000     
  0.500000000000000     
  0.500000000000000     
  0.500000000000000     
  0.500000000000000     
  0.500000000000000     
  0.500000000000000     
  0.500000000000000     
  0.500000000000000     
  0.500000000000000     
  0.500000000000000     
  0.500000000000000     
  0.500000000000000     
  0.500000000000000     
  0.500000000000000     
  0.500000000000000     
  0.500000000000000     
  0.500000000000000     
  0.500000000000000     
  0.500000000000000     
  0.500000000000000     
  0.500000000000000     
  0.500000000000000     
  0.500000000000000     
  0.500000000000000     
  0.500000000000000     
  0.500000000000000     
  0.500000000000000     
  0.500000000000000     
  0.500000000000000     
  0.500000000000000     
  0.500000000000000     
  0.500000000000000     
  0.500000000000000     
  0.500000000000000     
  0.500000000000000     
  0.500000000000000     
  0.500000000000000     
  0.500000000000000     
  0.500000000000000     
  0.500000000000000     
  0.500000000000000     
  0.500000000000000     
  0.500000000000000     
  0.500000000000000     
  0.500000000000000     
  0.500000000000000     
  0.500000000000000     
  0.500000000000000     
  0.500000000000000     
  0.500000000000000     
  0.500000000000000     
  0.500000000000000     
  0.500000000000000     
  0.500000000000000     
  0.500000000000000     
  0.500000000000000     
  0.500000000000000     
  0.500000000000000     
  0.500000000000000     
  0.500000000000000     
  0.500000000000000     
  0.500000000000000     
  0.500000000000000     
  0.500000000000000     
  0.500000000000000     
  0.500000000000000     
  0.500000000000000     
  0.500000000000000     
  0.500000000000000     
  0.500000000000000     
  0.500000000000000     
  0.500000000000000     
  0.500000000000000     
  0.500000000000000     
  0.500000000000000     
  0.500000000000000     
  0.500000000000000     
  0.500000000000000     
  0.500000000000000     
  0.500000000000000     
  0.500000000000000     
  0.500000000000000     
  0.500000000000000     
  0.500000000000000     
  0.500000000000000     
  0.500000000000000     
  0.500000000000000     
  0.500000000000000     
  0.500000000000000     
  0.500000000000000     
  0.500000000000000     
  0.500000000000000     
  0.500000000000000     
  0.500000000000000     
  0.500000000000000     
  0.500000000000000     
  0.500000000000000     
  0.500000000000000     
  0.500000000000000     
  0.500000000000000     
  0.500000000000000     
  0.500000000000000     
  0.500000000000000     
  0.500000000000000     
  0.500000000000000     
  0.500000000000000     
  0.500000000000000     
  0.500000000000000     
  0.500000000000000     
  0.500000000000000     
  0.500000000000000     
  0.500000000000000     
  0.500000000000000     
  0.500000000000000     
  0.500000000000000     
  0.500000000000000     
  0.500000000000000     
  0.500000000000000     
  0.500000000000000     
  0.500000000000000     
  0.500000000000000     
  0.500000000000000     
  0.500000000000000     
  0.500000000000000     
  0.500000000000000     
  0.500000000000000     
  0.500000000000000     
  0.500000000000000     
  0.500000000000000     
  0.500000000000000     
  0.500000000000000     
  0.500000000000000     
  0.500000000000000     
  0.500000000000000     
  0.500000000000000     
  0.500000000000000     
  0.500000000000000     
  0.500000000000000     
  0.500000000000000     
  0.500000000000000     
  0.500000000000000     
  0.500000000000000     
  0.500000000000000     
  0.500000000000000     
  0.500000000000000     
  0.500000000000000     
  0.500000000000000     
  0.500000000000000     
  0.500000000000000     
  0.500000000000000     
  0.500000000000000     
  0.500000000000000     
  0.500000000000000     
  0.500000000000000     
  0.500000000000000     
  0.500000000000000     
  0.500000000000000     
  0.500000000000000     
  0.500000000000000     
  0.500000000000000     
  0.500000000000000     
  0.500000000000000     
  0.500000000000000     
  0.500000000000000     
  0.500000000000000     
  0.500000000000000     
  0.500000000000000     
  0.500000000000000     
  0.500000000000000     
  0.500000000000000     
  0.500000000000000     
  0.500000000000000     
  0.500000000000000     
  0.500000000000000     
  0.500000000000000     
  0.500000000000000     
  0.500000000000000     
  0.500000000000000     
  0.500000000000000     
  0.500000000000000     
  0.500000000000000     
  0.500000000000000     
  0.500000000000000     
  0.500000000000000     
  0.500000000000000     
  0.500000000000000     
  0.500000000000000     
  0.500000000000000     
  0.500000000000000     
  0.500000000000000     
  0.500000000000000     
  0.500000000000000     
  0.500000000000000     
  0.500000000000000     
  0.500000000000000     
  0.500000000000000     
  0.500000000000000     
  0.500000000000000     
  0.500000000000000     
  0.500000000000000     
  0.500000000000000     
  0.500000000000000     
  0.500000000000000     
  0.500000000000000     
  0.500000000000000     
  0.500000000000000     
  0.500000000000000     
  0.500000000000000     
  0.500000000000000     
  0.500000000000000     
  0.500000000000000     
  0.500000000000000     
  0.500000000000000     
  0.500000000000000     
  0.500000000000000     
  0.500000000000000     
  0.500000000000000     
  0.500000000000000     
  0.500000000000000     
  0.500000000000000     
  0.500000000000000     
  0.500000000000000     
  0.500000000000000     
  0.500000000000000     
  0.500000000000000     
  0.500000000000000     
  0.500000000000000     
  0.500000000000000     
  0.500000000000000     
  0.500000000000000     
  0.500000000000000     
  0.500000000000000     
  0.500000000000000     
  0.500000000000000     
  0.500000000000000     
  0.500000000000000     
  0.500000000000000     
  0.500000000000000     
  0.500000000000000     
  0.500000000000000     
  0.500000000000000     
  0.500000000000000     
  0.500000000000000     
  0.500000000000000     
  0.500000000000000     
  0.500000000000000     
  0.500000000000000     
  0.500000000000000     
  0.500000000000000     
  0.500000000000000     
  0.500000000000000     
  0.500000000000000     
  0.500000000000000     
  0.500000000000000     
  0.500000000000000     
  0.500000000000000     
  0.500000000000000     
  0.500000000000000     
  0.500000000000000     
  0.500000000000000     
  0.500000000000000     
  0.500000000000000     
  0.500000000000000     
  0.500000000000000     
  0.500000000000000     
  0.500000000000000     
  0.500000000000000     
  0.500000000000000     
  0.500000000000000     
  0.500000000000000     
  0.500000000000000     
  0.500000000000000     
  0.500000000000000     
  0.500000000000000     
  0.500000000000000     
  0.500000000000000     
  0.500000000000000     
  0.500000000000000     
  0.500000000000000     
  0.500000000000000     
  0.500000000000000     
  0.500000000000000     
  0.500000000000000     
  0.500000000000000     
  0.500000000000000     
  0.500000000000000     
  0.500000000000000     
  0.500000000000000     
  0.500000000000000     
  0.500000000000000     
  0.500000000000000     
  0.500000000000000     
  0.500000000000000     
  0.500000000000000     
  0.500000000000000     
  0.500000000000000     
  0.500000000000000     
  0.500000000000000     
  0.500000000000000     
  0.500000000000000     
  0.500000000000000     
  0.500000000000000     
  0.500000000000000     
  0.500000000000000     
  0.500000000000000     
  0.500000000000000     
  0.500000000000000     
  0.500000000000000     
  0.500000000000000     
  0.500000000000000     
  0.500000000000000     
  0.500000000000000     
  0.500000000000000     
  0.500000000000000     
  0.500000000000000     
  0.500000000000000     
  0.500000000000000     
  0.500000000000000     
  0.500000000000000     
  0.500000000000000     
  0.500000000000000     
  0.500000000000000     
  0.500000000000000     
  0.500000000000000     
  0.500000000000000     
  0.500000000000000     
  0.500000000000000     
  0.500000000000000     
  0.500000000000000     
  0.500000000000000     
  0.500000000000000     
  0.500000000000000     
  0.500000000000000     
  0.500000000000000     
  0.500000000000000     
  0.500000000000000     
  0.500000000000000     
  0.500000000000000     
  0.500000000000000     
  0.500000000000000     
  0.500000000000000     
  0.500000000000000     
  0.500000000000000     
  0.500000000000000     
  0.500000000000000     
  0.500000000000000     
  0.500000000000000     
  0.500000000000000     
  0.500000000000000     
  0.500000000000000     
  0.500000000000000     
  0.500000000000000     
  0.500000000000000     
  0.500000000000000     
  0.500000000000000     
  0.500000000000000     
  0.500000000000000     
  0.500000000000000     
  0.500000000000000     
  0.500000000000000     
  0.500000000000000     
  0.500000000000000     
  0.500000000000000     
  0.500000000000000     
  0.500000000000000     
  0.500000000000000     
  0.500000000000000     
  0.500000000000000     
  0.500000000000000     
  0.500000000000000     
  0.500000000000000     
  0.500000000000000     
  0.500000000000000     
  0.500000000000000     
  0.500000000000000     
  0.500000000000000     
  0.500000000000000     
  0.500000000000000     
  0.500000000000000     
  0.500000000000000     
  0.500000000000000     
  0.500000000000000     
  0.500000000000000     
  0.500000000000000     
  0.500000000000000     
  0.500000000000000     
  0.500000000000000     
  0.500000000000000     
  0.500000000000000     
  0.500000000000000     
  0.500000000000000     
  0.500000000000000     
  0.500000000000000     
  0.500000000000000     
  0.500000000000000     
  0.500000000000000     
  0.500000000000000     
  0.500000000000000     
  0.500000000000000     
  0.500000000000000     
  0.500000000000000     
  0.500000000000000     
  0.500000000000000     
  0.500000000000000     
  0.500000000000000     
  0.500000000000000     
  0.500000000000000     
  0.500000000000000     
  0.500000000000000     
  0.500000000000000     
  0.500000000000000     
  0.500000000000000     
  0.500000000000000     
  0.500000000000000     
  0.500000000000000     
  0.500000000000000     
  0.500000000000000     
  0.500000000000000     
  0.500000000000000     
  0.500000000000000     
  0.500000000000000     
  0.500000000000000     
  0.500000000000000     
  0.500000000000000     
  0.500000000000000     
  0.500000000000000     
  0.500000000000000     
  0.500000000000000     
  0.500000000000000     
  0.500000000000000     
  0.500000000000000     
  0.500000000000000     
  0.500000000000000     
  0.500000000000000     
  0.500000000000000     
  0.500000000000000     
  0.500000000000000     
  0.500000000000000     
  0.500000000000000     
  0.500000000000000     
  0.500000000000000     
  0.500000000000000     
  0.500000000000000     
  0.500000000000000     
  0.500000000000000     
  0.500000000000000     
  0.500000000000000     
  0.500000000000000     
  0.500000000000000     
  0.500000000000000     
  0.500000000000000     
  0.500000000000000     
  0.500000000000000     
  0.500000000000000     
  0.500000000000000     
  0.500000000000000     
  0.500000000000000     
  0.500000000000000     
  0.500000000000000     
  0.500000000000000     
  0.500000000000000     
  0.500000000000000     
  0.500000000000000     
  0.500000000000000     
  0.500000000000000     
  0.500000000000000     
  0.500000000000000     
  0.500000000000000     
  0.500000000000000     
  0.500000000000000     
  0.500000000000000     
  0.500000000000000     
  0.500000000000000     
  0.500000000000000     
  0.500000000000000     
  0.500000000000000     
  0.500000000000000     
  0.500000000000000     
  0.500000000000000     
  0.500000000000000     
  0.500000000000000     
  0.500000000000000     
  0.500000000000000     
  0.500000000000000     
  0.500000000000000     
  0.500000000000000     
  0.500000000000000     
  0.500000000000000     
  0.500000000000000     
  0.500000000000000     
  0.500000000000000     
  0.500000000000000     
  0.500000000000000     
  0.500000000000000     
  0.500000000000000     
  0.500000000000000     
  0.500000000000000     
  0.500000000000000     
  0.500000000000000     
  0.500000000000000     
  0.500000000000000     
  0.500000000000000     
  0.500000000000000     
  0.500000000000000     
  0.500000000000000     
  0.500000000000000     
  0.500000000000000     
  0.500000000000000     
  0.500000000000000     
  0.500000000000000     
  0.500000000000000     
  0.500000000000000     
  0.500000000000000     
  0.500000000000000     
  0.500000000000000     
  0.500000000000000     
  0.500000000000000     
  0.500000000000000     
  0.500000000000000     
  0.500000000000000     
  0.500000000000000     
  0.500000000000000     
  0.500000000000000     
  0.500000000000000     
  0.500000000000000     
  0.500000000000000     
  0.500000000000000     
  0.500000000000000     
  0.500000000000000     
  0.500000000000000     
  0.500000000000000     
  0.500000000000000     
  0.500000000000000     
  0.500000000000000     
  0.500000000000000     
  0.500000000000000     
  0.500000000000000     
  0.500000000000000     
  0.500000000000000     
  0.500000000000000     
  0.500000000000000     
  0.500000000000000     
  0.500000000000000     
  0.500000000000000     
  0.500000000000000     
  0.500000000000000     
  0.500000000000000     
  0.500000000000000     
  0.500000000000000     
  0.500000000000000     
  0.500000000000000     
  0.500000000000000     
  0.500000000000000     
  0.500000000000000     
  0.500000000000000     
  0.500000000000000     
  0.500000000000000     
  0.500000000000000     
  0.500000000000000     
  0.500000000000000     
  0.500000000000000     
  0.500000000000000     
  0.500000000000000     
  0.500000000000000     
  0.500000000000000     
  0.500000000000000     
  0.500000000000000     
  0.500000000000000     
  0.500000000000000     
  0.500000000000000     
  0.500000000000000     
  0.500000000000000     
  0.500000000000000     
  0.500000000000000     
  0.500000000000000     
  0.500000000000000     
  0.500000000000000     
  0.500000000000000     
  0.500000000000000     
  0.500000000000000     
  0.500000000000000     
  0.500000000000000     
  0.500000000000000     
  0.500000000000000     
  0.500000000000000     
  0.500000000000000     
  0.500000000000000     
  0.500000000000000     
  0.500000000000000     
  0.500000000000000     
  0.500000000000000     
  0.500000000000000     
  0.500000000000000     
  0.500000000000000     
  0.500000000000000     
  0.500000000000000     
  0.500000000000000     
  0.500000000000000     
  0.500000000000000     
  0.500000000000000     
  0.500000000000000     
  0.500000000000000     
  0.500000000000000     
  0.500000000000000     
  0.500000000000000     
  0.500000000000000     
  0.500000000000000     
  0.500000000000000     
  0.500000000000000     
  0.500000000000000     
  0.500000000000000     
  0.500000000000000     
  0.500000000000000     
  0.500000000000000     
  0.500000000000000     
  0.500000000000000     
  0.500000000000000     
  0.500000000000000     
  0.500000000000000     
  0.500000000000000     
  0.500000000000000     
  0.500000000000000     
  0.500000000000000     
  0.500000000000000     
  0.500000000000000     
  0.500000000000000     
  0.500000000000000     
  0.500000000000000     
  0.500000000000000     
  0.500000000000000     
  0.500000000000000     
  0.500000000000000     
  0.500000000000000     
  0.500000000000000     
  0.500000000000000     
  0.500000000000000     
  0.500000000000000     
  0.500000000000000     
  0.500000000000000     
  0.500000000000000     
  0.500000000000000     
  0.500000000000000     
  0.500000000000000     
  0.500000000000000     
  0.500000000000000     
  0.500000000000000     
  0.500000000000000     
  0.500000000000000     
  0.500000000000000     
  0.500000000000000     
  0.500000000000000     
  0.500000000000000     
  0.500000000000000     
  0.500000000000000     
  0.500000000000000     
  0.500000000000000     
  0.500000000000000     
  0.500000000000000     
  0.500000000000000     
  0.500000000000000     
  0.500000000000000     
  0.500000000000000     
  0.500000000000000     
  0.500000000000000     
  0.500000000000000     
  0.500000000000000     
  0.500000000000000     
  0.500000000000000     
  0.500000000000000     
  0.500000000000000     
  0.500000000000000     
  0.500000000000000     
  0.500000000000000     
  0.500000000000000     
  0.500000000000000     
  0.500000000000000     
  0.500000000000000     
  0.500000000000000     
  0.500000000000000     
  0.500000000000000     
  0.500000000000000     
  0.500000000000000     
  0.500000000000000     
  0.500000000000000     
  0.500000000000000     
  0.500000000000000     
  0.500000000000000     
  0.500000000000000     
  0.500000000000000     
  0.500000000000000     
  0.500000000000000     
  0.500000000000000     
  0.500000000000000     
  0.500000000000000     
  0.500000000000000     
  0.500000000000000     
  0.500000000000000     
  0.500000000000000     
  0.500000000000000     
  0.500000000000000     
  0.500000000000000     
  0.500000000000000     
  0.500000000000000     
  0.500000000000000     
  0.500000000000000     
  0.500000000000000     
  0.500000000000000     
  0.500000000000000     
  0.500000000000000     
  0.500000000000000     
  0.500000000000000     
  0.500000000000000     
  0.500000000000000     
  0.500000000000000     
  0.500000000000000     
  0.500000000000000     
  0.500000000000000     
  0.500000000000000     
  0.500000000000000     
  0.500000000000000     
  0.500000000000000     
  0.500000000000000     
  0.500000000000000     
  0.500000000000000     
  0.500000000000000     
  0.500000000000000     
  0.500000000000000     
  0.500000000000000     
  0.500000000000000     
  0.500000000000000     
  0.500000000000000     
  0.500000000000000     
  0.500000000000000     
  0.500000000000000     
  0.500000000000000     
  0.500000000000000     
  0.500000000000000     
  0.500000000000000     
  0.500000000000000     
  0.500000000000000     
  0.500000000000000     
  0.500000000000000     
  0.500000000000000     
  0.500000000000000     
  0.500000000000000     
  0.500000000000000     
  0.500000000000000     
  0.500000000000000     
  0.500000000000000     
  0.500000000000000     
  0.500000000000000     
  0.500000000000000     
  0.500000000000000     
  0.500000000000000     
  0.500000000000000     
  0.500000000000000     
  0.500000000000000     
  0.500000000000000     
  0.500000000000000     
  0.500000000000000     
  0.500000000000000     
  0.500000000000000     
  0.500000000000000     
  0.500000000000000     
  0.500000000000000     
  0.500000000000000     
  0.500000000000000     
  0.500000000000000     
  0.500000000000000     
  0.500000000000000     
  0.500000000000000     
  0.500000000000000     
  0.500000000000000     
  0.500000000000000     
  0.500000000000000     
  0.500000000000000     
  0.500000000000000     
  0.500000000000000     
  0.500000000000000     
  0.500000000000000     
  0.500000000000000     
  0.500000000000000     
  0.500000000000000     
  0.500000000000000     
  0.500000000000000     
  0.500000000000000     