# vtk DataFile Version 5.1
Data.vtk
ASCII
DATASET UNSTRUCTURED_GRID
 
POINTS 2000 float
   -6.98  -10.54   -0.30
   -8.42  -11.64    2.08
    3.12  -12.47    0.97
    2.51  -12.03   -1.01
   -9.66   -9.50    8.55
   -5.20   -9.00   -6.69
   -6.36   -8.68   -3.76
   -1.98  -11.79   -8.46
   -1.50  -13.59   -8.74
   -3.75  -11.64   -0.69
   -8.58  -11.69   -6.62
   -7.79  -11.24   -7.08
   -7.88   -8.17   -2.02
   -1.77  -12.70    4.92
    1.73  -14.40   -0.88
   -8.70   -8.37    3.38
   -6.11  -13.15    7.21
   -2.16  -10.73    4.35
    1.44  -11.30    6.14
   -1.00  -14.47   -9.43
    5.05  -13.59   -0.63
    1.51  -11.36   -0.43
   -4.34  -10.51   -9.17
   -2.70  -14.25   -8.24
   -5.64  -11.08   -1.98
   -2.82  -14.18    1.50
   -2.55  -13.44    6.95
    0.64  -11.32    8.52
   -7.07  -12.66   -6.44
  -11.52   -6.76    9.50
   -0.06  -13.06   -6.67
   -9.31   -9.87    1.41
   -1.22  -10.42    4.62
   -4.43  -12.82   -2.98
    3.82  -13.99   -6.54
    2.67  -11.76    7.38
  -13.25   -5.90    8.54
    2.21  -13.53    6.73
   -3.37  -14.09    2.36
   -3.10  -13.16    3.84
   -6.99   -9.66   -1.56
    3.98  -13.22   -2.59
   -3.77  -12.37   -5.78
   -3.34  -11.33    0.86
   -8.95  -10.20   -8.33
   -7.22   -9.17    3.11
    2.14  -11.53    3.72
    1.47  -13.93   -6.10
   -4.72  -13.68    0.41
    2.57  -14.27   -7.28
    3.24  -12.30   -4.98
    1.85  -12.58    8.45
   -8.18   -7.52    7.39
   -2.01  -13.67    2.56
  -11.74   -8.40    6.38
   -1.91  -13.87   -2.15
  -11.66   -6.32   -6.45
    0.85  -13.60    4.65
    2.05  -14.33    0.96
   -5.93   -8.90   -7.91
   -4.41  -13.81   -2.68
   -6.79   -8.07   -9.17
   -2.89  -10.59    6.01
    4.11  -12.34   -2.14
   -7.50   -9.46    0.58
    2.56  -14.27    4.53
    3.88  -13.20   -9.16
  -11.91   -8.08    4.66
   -0.56  -11.02   -7.40
   -7.19  -11.29   -2.22
   -4.97  -13.60    8.46
   -8.43  -11.16   -9.50
   -1.99  -10.02   -5.95
  -10.97   -9.42    5.22
   -1.67   -9.53    4.62
  -11.43   -8.78   -9.48
  -11.25   -6.67    3.80
    1.43  -11.35   -5.61
   -3.43  -13.19    1.93
  -11.53   -8.76    0.51
   -0.34  -11.25    8.01
   -7.63   -8.54    0.93
   -3.51  -10.43   -3.94
   -4.37   -8.80   -8.50
    2.00  -13.72   -8.66
   -4.50  -10.84   -8.17
    0.83  -14.48    5.24
   -9.62   -6.73   -5.08
   -6.56  -12.93    2.92
   -5.16  -11.94    6.87
  -10.34  -10.16   -0.18
   -2.00  -14.36   -9.50
  -13.78   -4.51   -6.44
  -13.05   -6.33    9.43
    1.37  -10.79    7.86
   -7.09  -11.41   -3.22
    5.32  -13.49    6.44
   -2.62  -14.26    5.61
   -1.37  -10.82   -5.36
    0.94  -14.43   -3.47
    2.11  -12.01    2.29
  -12.61   -6.43   -7.76
   -8.18  -11.88    3.25
  -13.54   -4.63    7.47
    3.87  -13.98    2.96
   -7.36   -7.80   -5.53
    4.49  -11.64    3.47
  -13.31   -5.74   -7.55
    3.05  -12.65    8.67
    3.16  -13.30    3.17
  -12.45   -7.15    9.50
    2.12  -12.82   -2.48
   -7.11   -8.99   -0.82
   -7.66   -8.78   -5.52
   -3.43  -10.16    2.21
  -10.78   -7.40   -7.49
    2.63  -14.26   -0.46
   -6.69  -11.75   -6.62
    2.51  -13.33    9.50
   -8.47   -8.20    5.41
   -0.21  -11.13    4.18
   -6.49   -8.66    8.65
   -8.79  -10.35    9.11
  -10.69   -9.60    4.25
  -11.29   -8.19   -1.87
  -11.96   -8.20   -3.47
    2.28  -11.79   -5.88
    0.32  -14.49    9.50
   -0.90  -11.94   -8.16
    2.04  -12.66   -8.84
   -2.22  -12.45   -3.83
   -0.19  -13.65    7.11
  -10.87   -9.59   -2.11
  -10.64   -9.84   -1.08
   -4.15  -13.01   -8.71
    1.20  -11.94    9.09
   -0.13  -14.50   -8.60
    0.11  -11.41   -4.66
   -1.70  -10.18    7.47
   -1.38  -10.92    0.59
  -11.96   -8.19   -1.07
    4.67  -12.62    0.13
   -5.13  -12.75   -8.04
   -9.80   -7.56    5.97
   -2.85  -13.37    6.00
    3.04  -14.18    8.56
    0.78  -13.39    7.85
   -1.52  -11.25   -7.75
   -0.07  -11.96   -7.61
   -7.17   -8.79   -7.96
   -8.78   -9.53    6.30
   -6.79  -12.79   -0.60
    2.98  -13.52    7.37
   -9.81  -10.65   -8.63
   -1.11  -14.46   -8.44
    1.46  -12.61    1.82
   -1.23  -12.79    1.01
   -2.66   -9.41    4.27
   -8.01  -10.87    9.45
   -0.90  -10.60    2.61
  -13.42   -5.07   -8.28
   -6.73   -9.15    7.73
    0.39  -11.59   -5.98
   -5.61  -10.29    2.46
  -11.31   -7.31   -6.61
   -3.80  -13.99    1.42
    1.44  -14.43   -2.40
   -0.41  -13.65   -9.48
  -12.19   -7.37   -1.60
   -5.14  -11.58   -8.46
   -3.41  -10.39    1.20
   -1.03  -12.80   -6.66
   -5.25   -9.74    6.84
   -9.13  -10.08   -7.25
    3.49  -12.75    6.97
  -12.21   -7.82    2.84
   -2.45  -11.92    9.49
  -10.53   -6.52    7.48
   -6.90  -12.75   -7.51
   -2.51  -11.56   -0.61
   -6.18  -13.12   -6.31
   -8.97   -8.33    2.40
   -3.63   -9.21    2.47
   -5.49  -10.66   -6.77
   -8.18   -8.98    9.16
   -2.15   -9.48   -1.77
    5.35  -13.48   -4.06
    0.32  -12.59   -5.88
   -5.63  -13.36    5.74
    2.80  -11.88   -3.83
    0.45  -13.75   -1.20
   -0.84  -11.31    4.95
   -3.96  -13.95    9.50
   -5.31  -10.25   -9.13
   -7.99   -8.90   -3.88
    0.03  -10.68    5.33
  -10.07   -8.85   -6.62
    1.77  -11.06   -4.65
    2.28  -13.42   -4.79
   -3.95  -12.96    0.40
   -4.63  -11.62    6.02
    0.46  -11.51    6.17
   -5.12   -9.85   -7.21
    0.71  -12.37   -2.79
   -5.44   -9.44    4.56
   -2.72  -12.52   -8.02
   -7.20   -8.59   -4.43
  -13.25   -5.35    9.50
  -12.09   -6.20   -8.58
  -10.52   -9.95   -8.63
   -7.21  -11.76    7.21
    0.69  -12.57   -8.91
  -12.13   -6.64    6.63
   -2.78  -10.80   -6.06
   -9.66   -7.47   -5.76
   -4.41  -13.80    3.08
   -8.95  -11.34    3.98
    3.02  -12.09    9.50
   -8.04   -9.24   -9.50
   -4.99  -13.61   -7.55
   -3.72  -12.05    5.80
   -6.82   -8.27    2.90
   -3.33  -14.09   -6.46
    2.45  -14.29   -4.33
    1.75  -13.48    7.66
   -0.41  -13.80    9.50
   -2.24  -13.47   -7.81
   -3.82  -10.10   -0.70
   -7.19  -11.44    9.50
   -5.16  -11.23   -7.52
    2.93  -14.20   -3.43
    1.13  -10.78    1.29
    0.78  -13.72   -7.25
   -4.28  -11.72    7.41
   -7.05  -11.57   -7.68
   -4.26  -13.84   -1.69
    2.45  -14.29   -2.45
   -6.91  -10.67    2.21
   -6.88  -11.62    2.99
   -1.43  -13.60   -7.22
   -6.71  -12.84    3.96
    3.41  -11.55    4.00
  -10.16   -8.89   -9.50
   -3.01  -11.77   -8.62
   -5.41   -8.65    5.17
    4.97  -13.62    2.50
  -10.44   -6.27   -7.92
  -12.30   -7.68    3.83
   -9.12   -9.48    9.50
   -4.41  -12.28    9.48
    2.81  -12.84   -4.13
  -10.43   -8.93   -8.54
   -9.58   -9.43   -8.40
    5.32  -12.80    7.17
   -4.34   -9.03    1.06
    1.77  -11.49    0.95
   -2.62  -11.52   -9.50
   -0.51  -12.25    5.04
   -4.84  -12.57   -6.23
   -9.62  -10.64   -2.72
   -1.95  -12.31   -7.04
   -6.55  -11.78   -5.62
  -10.47  -10.01    6.02
   -8.18   -7.98    4.46
   -7.77  -12.24   -8.03
   -1.48  -10.89   -2.73
    3.03  -12.17    1.94
  -11.23   -8.84    9.50
   -2.05  -12.75   -8.73
  -10.69   -7.05   -8.49
   -5.84  -13.27   -0.67
    4.63  -12.07    1.08
   -9.64   -9.75   -9.37
   -1.82  -10.57   -6.76
  -10.47   -7.86   -6.64
   -3.73  -12.21    8.10
   -9.89   -9.38    6.53
   -6.34   -9.44    3.86
   -5.99   -8.51   -6.33
    1.82  -14.38    2.03
    1.51  -12.90    5.22
    3.85  -13.98    7.57
   -5.65   -8.99   -4.40
   -2.10  -12.85    9.48
    1.39  -13.64   -3.01
  -11.68   -4.95    9.50
    1.83  -12.86   -3.56
   -6.69   -8.67    6.75
   -6.41   -7.99   -4.59
   -1.58  -11.21    3.14
    5.37  -13.47    1.22
   -3.69   -9.94    4.11
   -2.03  -14.36   -3.74
   -7.94  -10.02   -5.97
   -1.75  -10.11    9.50
   -3.72  -14.01   -5.54
   -1.39  -11.46   -6.16
   -6.33  -11.48    6.67
   -4.43  -10.71    5.62
    2.39  -14.30   -6.23
   -4.07  -11.05   -1.43
    3.08  -11.85    5.69
   -0.00  -12.79    4.09
  -10.86   -9.58   -7.76
   -5.51   -9.81   -0.45
    2.31  -14.31    9.47
   -7.07  -10.31    6.80
    1.44  -14.43   -4.34
   -9.37   -9.67   -2.78
   -5.56   -8.55    6.85
   -4.02   -9.35   -1.33
   -4.26  -12.33    6.62
  -10.96   -9.40   -0.00
   -8.74  -11.50   -3.32
    1.31  -13.09   -9.50
   -2.19  -10.82   -8.36
   -2.41  -10.54   -9.48
   -5.02  -12.83   -0.04
    0.58  -14.49    8.53
   -6.06  -11.69   -7.39
   -3.54  -11.15   -9.44
   -6.48   -8.36   -2.82
    5.05  -13.18   -4.96
    4.28  -13.85   -3.34
  -10.19  -10.29   -1.89
  -10.29  -10.21    2.53
   -9.00  -11.37    2.96
    0.13  -11.68    9.50
    1.66  -13.22   -6.77
   -7.24  -11.53    5.10
   -9.23   -8.98   -0.38
   -3.18  -10.92   -1.95
    6.92  -12.74    4.26
    4.42  -13.81   -5.43
    0.14  -13.59    8.59
   -6.72  -12.83   -4.24
   -8.95   -7.97    6.29
   -8.18  -11.97    7.65
    5.53  -13.41    3.63
  -11.05   -7.51   -1.10
  -12.34   -7.27   -3.55
   -1.20  -13.01   -9.50
    2.11  -12.11    5.68
   -0.94  -12.80    7.11
   -4.50   -9.52   -9.18
   -5.82  -10.84   -8.50
   -6.19   -8.62    4.43
  -11.63   -7.39   -4.87
   -8.77   -9.44   -6.55
   -6.97  -12.71    6.97
   -3.43  -14.05   -7.59
   -6.65   -9.02   -8.90
   -1.03  -14.46   -3.54
   -4.07  -13.92    5.62
   -2.91  -11.03   -4.47
   -3.47   -9.20    3.47
   -5.85   -9.84   -6.32
   -3.07  -14.17    8.26
   -9.80   -9.58    7.57
   -6.65  -11.75   -9.48
   -5.94  -13.23    8.53
    0.73  -12.79    8.74
   -8.49   -8.22   -5.52
   -5.38   -9.48    8.54
    4.40  -12.82    2.68
   -9.16  -11.24   -0.87
   -8.63  -11.65    9.48
   -0.17  -14.50   -4.18
   -9.03   -8.20   -2.60
  -10.82   -7.68    6.79
   -3.91   -9.78   -4.58
    1.01  -11.46   -6.77
   -4.57   -9.99   -3.77
  -10.16   -9.41    9.49
  -13.15   -6.01   -8.50
    1.92  -14.37    5.75
   -3.19  -10.10    8.54
  -10.79   -7.73    3.08
    0.81  -13.72   -4.66
   -1.28   -9.66   -6.91
    3.91  -13.96   -8.49
   -7.71  -12.27   -5.78
    0.09  -14.50   -5.38
   -7.04  -10.54    7.79
   -6.51  -11.83   -8.47
   -1.76   -8.92   -9.50
  -10.33   -8.80   -0.84
   -2.06  -10.12    1.89
   -3.26  -13.18   -6.05
    0.87  -11.24   -2.58
   -6.20  -11.24    9.48
   -4.32   -9.28    6.19
   -8.63   -7.59   -9.41
   -4.60   -9.69    5.29
   -8.51   -9.33    7.92
    1.46  -11.68    3.00
[...]
POINT_DATA 2000
SCALARS radius float
LOOKUP_TABLE default
  0.500000000000000     
  0.500000000000000     
  0.500000000000000     
  0.500000000000000     
  0.500000000000000     
  0.500000000000000     
  0.500000000000000     
  0.500000000000000     
  0.500000000000000     
  0.500000000000000     
  0.500000000000000     
  0.500000000000000     
  0.500000000000000     
  0.500000000000000     
  0.500000000000000     
  0.500000000000000     
  0.500000000000000     
  0.500000000000000     
  0.500000000000000     
  0.500000000000000     
  0.500000000000000     
  0.500000000000000     
  0.500000000000000     
  0.500000000000000     
  0.500000000000000     
  0.500000000000000     
  0.500000000000000     
  0.500000000000000     
  0.500000000000000     
  0.500000000000000     
  0.500000000000000     
  0.500000000000000     
  0.500000000000000     
  0.500000000000000     
  0.500000000000000     
  0.500000000000000     
  0.500000000000000     
  0.500000000000000     
  0.500000000000000     
  0.500000000000000     
  0.500000000000000     
  0.500000000000000     
  0.500000000000000     
  0.500000000000000     
  0.500000000000000     
  0.500000000000000     
  0.500000000000000     
  0.500000000000000     
  0.500000000000000     
  0.500000000000000     
  0.500000000000000     
  0.500000000000000     
  0.500000000000000     
  0.500000000000000     
  0.500000000000000     
  0.500000000000000     
  0.500000000000000     
  0.500000000000000     
  0.500000000000000     
  0.500000000000000     
  0.500000000000000     
  0.500000000000000     
  0.500000000000000     
  0.500000000000000     
  0.500000000000000     
  0.500000000000000     
  0.500000000000000     
  0.500000000000000     
  0.500000000000000     
  0.500000000000000     
  0.500000000000000     
  0.500000000000000     
  0.500000000000000     
  0.500000000000000     
  0.500000000000000     
  0.500000000000000     
  0.500000000000000     
  0.500000000000000     
  0.500000000000000     
  0.500000000000000     
  0.500000000000000     
  0.500000000000000     
  0.500000000000000     
  0.500000000000000     
  0.500000000000000     
  0.500000000000000     
  0.500000000000000     
  0.500000000000000     
  0.500000000000000     
  0.500000000000000     
  0.500000000000000     
  0.500000000000000     
  0.500000000000000     
  0.500000000000000     
  0.500000000000000     
  0.500000000000000     
  0.500000000000000     
  0.500000000000000     
  0.500000000000000     
  0.500000000000000     
  0.500000000000000     
  0.500000000000000     
  0.500000000000000     
  0.500000000000000     
  0.500000000000000     
  0.500000000000000     
  0.500000000000000     
  0.500000000000000     
  0.500000000000000     
  0.500000000000000     
  0.500000000000000     
  0.500000000000000     
  0.500000000000000     
  0.500000000000000     
  0.500000000000000     
  0.500000000000000     
  0.500000000000000     
  0.500000000000000     
  0.500000000000000     
  0.500000000000000     
  0.500000000000000     
  0.500000000000000     
  0.500000000000000     
  0.500000000000000     
  0.500000000000000     
  0.500000000000000     
  0.500000000000000     
  0.500000000000000     
  0.500000000000000     
  0.500000000000000     
  0.500000000000000     
  0.500000000000000     
  0.500000000000000     
  0.500000000000000     
  0.500000000000000     
  0.500000000000000     
  0.500000000000000     
  0.500000000000000     
  0.500000000000000     
  0.500000000000000     
  0.500000000000000     
  0.500000000000000     
  0.500000000000000     
  0.500000000000000     
  0.500000000000000     
  0.500000000000000     
  0.500000000000000     
  0.500000000000000     
  0.500000000000000     
  0.500000000000000     
  0.500000000000000     
  0.500000000000000     
  0.500000000000000     
  0.500000000000000     
  0.500000000000000     
  0.500000000000000     
  0.500000000000000     
  0.500000000000000     
  0.500000000000000     
  0.500000000000000     
  0.500000000000000     
  0.500000000000000     
  0.500000000000000     
  0.500000000000000     
  0.500000000000000     
  0.500000000000000     
  0.500000000000000     
  0.500000000000000     
  0.500000000000000     
  0.500000000000000     
  0.500000000000000     
  0.500000000000000     
  0.500000000000000     
  0.500000000000000     
  0.500000000000000     
  0.500000000000000     
  0.500000000000000     
  0.500000000000000     
  0.500000000000000     
  0.500000000000000     
  0.500000000000000     
  0.500000000000000     
  0.500000000000000     
  0.500000000000000     
  0.500000000000000     
  0.500000000000000     
  0.500000000000000     
  0.500000000000000     
  0.500000000000000     
  0.500000000000000     
  0.500000000000000     
  0.500000000000000     
  0.500000000000000     
  0.500000000000000     
  0.500000000000000     
  0.500000000000000     
  0.500000000000000     
  0.500000000000000     
  0.500000000000000     
  0.500000000000000     
  0.500000000000000     
  0.500000000000000     
  0.500000000000000     
  0.500000000000000     
  0.500000000000000     
  0.500000000000000     
  0.500000000000000     
  0.500000000000000     
  0.500000000000000     
  0.500000000000000     
  0.500000000000000     
  0.500000000000000     
  0.500000000000000     
  0.500000000000000     
  0.500000000000000     
  0.500000000000000     
  0.500000000000000     
  0.500000000000000     
  0.500000000000000     
  0.500000000000000     
  0.500000000000000     
  0.500000000000000     
  0.500000000000000     
  0.500000000000000     
  0.500000000000000     
  0.500000000000000     
  0.500000000000000     
  0.500000000000000     
  0.500000000000000     
  0.500000000000000     
  0.500000000000000     
  0.500000000000000     
  0.500000000000000     
  0.500000000000000     
  0.500000000000000     
  0.500000000000000     
  0.500000000000000     
  0.500000000000000     
  0.500000000000000     
  0.500000000000000     
  0.500000000000000     
  0.500000000000000     
  0.500000000000000     
  0.500000000000000     
  0.500000000000000     
  0.500000000000000     
  0.500000000000000     
  0.500000000000000     
  0.500000000000000     
  0.500000000000000     
  0.500000000000000     
  0.500000000000000     
  0.500000000000000     
  0.500000000000000     
  0.500000000000000     
  0.500000000000000     
  0.500000000000000     
  0.500000000000000     
  0.500000000000000     
  0.500000000000000     
  0.500000000000000     
  0.500000000000000     
  0.500000000000000     
  0.500000000000000     
  0.500000000000000     
  0.500000000000000     
  0.500000000000000     
  0.500000000000000     
  0.500000000000000     
  0.500000000000000     
  0.500000000000000     
  0.500000000000000     
  0.500000000000000     
  0.500000000000000     
  0.500000000000000     
  0.500000000000000     
  0.500000000000000     
  0.500000000000000     
  0.500000000000000     
  0.500000000000000     
  0.500000000000000     
  0.500000000000000     
  0.500000000000000     
  0.500000000000000     
  0.500000000000000     
  0.500000000000000     
  0.500000000000000     
  0.500000000000000     
  0.500000000000000     
  0.500000000000000     
  0.500000000000000     
  0.500000000000000     
  0.500000000000000     
  0.500000000000000     
  0.500000000000000     
  0.500000000000000     
  0.500000000000000     
  0.500000000000000     
  0.500000000000000     
  0.500000000000000     
  0.500000000000000     
  0.500000000000000     
  0.500000000000000     
  0.500000000000000     
  0.500000000000000     
  0.500000000000000     
  0.500000000000000     
  0.500000000000000     
  0.500000000000000     
  0.500000000000000     
  0.500000000000000     
  0.500000000000000     
  0.500000000000000     
  0.500000000000000     
  0.500000000000000     
  0.500000000000000     
  0.500000000000000     
  0.500000000000000     
  0.500000000000000     
  0.500000000000000     
  0.500000000000000     
  0.500000000000000     
  0.500000000000000     
  0.500000000000000     
  0.500000000000000     
  0.500000000000000     
  0.500000000000000     
  0.500000000000000     
  0.500000000000000     
  0.500000000000000     
  0.500000000000000     
  0.500000000000000     
  0.500000000000000     
  0.500000000000000     
  0.500000000000000     
  0.500000000000000     
  0.500000000000000     
  0.500000000000000     
  0.500000000000000     
  0.500000000000000     
  0.500000000000000     
  0.500000000000000     
  0.500000000000000     
  0.500000000000000     
  0.500000000000000     
  0.500000000000000     
  0.500000000000000     
  0.500000000000000     
  0.500000000000000     
  0.500000000000000     
  0.500000000000000     
  0.500000000000000     
  0.500000000000000     
  0.500000000000000     
  0.500000000000000     
  0.500000000000000     
  0.500000000000000     
  0.500000000000000     
  0.500000000000000     
  0.500000000000000     
  0.500000000000000     
  0.500000000000000     
  0.500000000000000     
  0.500000000000000     
  0.500000000000000     
  0.500000000000000     
  0.500000000000000     
  0.500000000000000     
  0.500000000000000     
  0.500000000000000     
  0.500000000000000     
  0.500000000000000     
  0.500000000000000     
  0.500000000000000     
  0.500000000000000     
  0.500000000000000     
  0.500000000000000     
  0.500000000000000     
  0.500000000000000     
  0.500000000000000     
  0.500000000000000     
  0.500000000000000     
  0.500000000000000     
  0.500000000000000     
  0.500000000000000     
  0.500000000000000     
  0.500000000000000     
  0.500000000000000     
  0.500000000000000     
  0.500000000000000     
  0.500000000000000     
  0.500000000000000     
  0.500000000000000     
  0.500000000000000     
  0.500000000000000     
  0.500000000000000     
  0.500000000000000     
  0.500000000000000     
  0.500000000000000     
  0.500000000000000     
  0.500000000000000     
  0.500000000000000     
  0.500000000000000     
  0.500000000000000     
  0.500000000000000     
  0.500000000000000     
  0.500000000000000     
  0.500000000000000     
  0.500000000000000     
  0.500000000000000     
  0.500000000000000     
  0.500000000000000     
  0.500000000000000     
  0.500000000000000     
  0.500000000000000     
  0.500000000000000     
  0.500000000000000     
  0.500000000000000     
  0.500000000000000     
  0.500000000000000     
  0.500000000000000     
  0.500000000000000     
  0.500000000000000     
  0.500000000000000     
  0.500000000000000     
  0.500000000000000     
  0.500000000000000     
  0.500000000000000     
  0.500000000000000     
  0.500000000000000     
  0.500000000000000     
  0.500000000000000     
  0.500000000000000     
  0.500000000000000     
  0.500000000000000     
  0.500000000000000     
  0.500000000000000     
  0.500000000000000     
  0.500000000000000     
  0.500000000000000     
  0.500000000000000     
  0.500000000000000     
  0.500000000000000     
  0.500000000000000     
  0.500000000000000     
  0.500000000000000     
  0.500000000000000     
  0.500000000000000     
  0.500000000000000     
  0.500000000000000     
  0.500000000000000     
  0.500000000000000     
  0.500000000000000     
  0.500000000000000     
  0.500000000000000     
  0.500000000000000     
  0.500000000000000     
  0.500000000000000     
  0.500000000000000     
  0.500000000000000     
  0.500000000000000     
  0.500000000000000     
  0.500000000000000     
  0.500000000000000     
  0.500000000000000     
  0.500000000000000     
  0.500000000000000     
  0.500000000000000     
  0.500000000000000     
  0.500000000000000     
  0.500000000000000     
  0.500000000000000     
  0.500000000000000     
  0.500000000000000     
  0.500000000000000     
  0.500000000000000     
  0.500000000000000     
  0.500000000000000     
  0.500000000000000     
  0.500000000000000     
  0.500000000000000     
  0.500000000000000     
  0.500000000000000     
  0.500000000000000     
  0.500000000000000     
  0.500000000000000     
  0.500000000000000     
  0.500000000000000     
  0.500000000000000     
  0.500000000000000     
  0.500000000000000     
  0.500000000000000     
  0.500000000000000     
  0.500000000000000     
  0.500000000000000     
  0.500000000000000     
  0.500000000000000     
  0.500000000000000     
  0.500000000000000     
  0.500000000000000     
  0.500000000000000     
  0.500000000000000     
  0.500000000000000     
  0.500000000000000     
  0.500000000000000     
  0.500000000000000     
  0.500000000000000     
  0.500000000000000     
  0.500000000000000     
  0.500000000000000     
  0.500000000000000     
  0.500000000000000     
  0.500000000000000     
  0.500000000000000     
  0.500000000000000     
  0.500000000000000     
  0.500000000000000     
  0.500000000000000     
  0.500000000000000     
  0.500000000000000     
  0.500000000000000     
  0.500000000000000     
  0.500000000000000     
  0.500000000000000     
  0.500000000000000     
  0.500000000000000     
  0.500000000000000     
  0.500000000000000     
  0.500000000000000     
  0.500000000000000     
  0.500000000000000     
  0.500000000000000     
  0.500000000000000     
  0.500000000000000     
  0.500000000000000     
  0.500000000000000     
  0.500000000000000     
  0.500000000000000     
  0.500000000000000     
  0.500000000000000     
  0.500000000000000     
  0.500000000000000     
  0.500000000000000     
  0.500000000000000     
  0.500000000000000     
  0.500000000000000     
  0.500000000000000     
  0.500000000000000     
  0.500000000000000     
  0.500000000000000     
  0.500000000000000     
  0.500000000000000     
  0.500000000000000     
  0.500000000000000     
  0.500000000000000     
  0.500000000000000     
  0.500000000000000     
  0.500000000000000     
  0.500000000000000     
  0.500000000000000     
  0.500000000000000     
  0.500000000000000     
  0.500000000000000     
  0.500000000000000     
  0.500000000000000     
  0.500000000000000     
  0.500000000000000     
  0.500000000000000     
  0.500000000000000     
  0.500000000000000     
  0.500000000000000     
  0.500000000000000     
  0.500000000000000     
  0.500000000000000     
  0.500000000000000     
  0.500000000000000     
  0.500000000000000     
  0.500000000000000     
  0.500000000000000     
  0.500000000000000     
  0.500000000000000     
  0.500000000000000     
  0.500000000000000     
  0.500000000000000     
  0.500000000000000     
  0.500000000000000     
  0.500000000000000     
  0.500000000000000     
  0.500000000000000     
  0.500000000000000     
  0.500000000000000     
  0.500000000000000     
  0.500000000000000     
  0.500000000000000     
  0.500000000000000     
  0.500000000000000     
  0.500000000000000     
  0.500000000000000     
  0.500000000000000     
  0.500000000000000     
  0.500000000000000     
  0.500000000000000     
  0.500000000000000     
  0.500000000000000     
  0.500000000000000     
  0.500000000000000     
  0.500000000000000     
  0.500000000000000     
  0.500000000000000     
  0.500000000000000     
  0.500000000000000     
  0.500000000000000     
  0.500000000000000     
  0.500000000000000     
  0.500000000000000     
  0.500000000000000     
  0.500000000000000     
  0.500000000000000     
  0.500000000000000     
  0.500000000000000     
  0.500000000000000     
  0.500000000000000     
  0.500000000000000     
  0.500000000000000     
  0.500000000000000     
  0.500000000000000     
  0.500000000000000     
  0.500000000000000     
  0.500000000000000     
  0.500000000000000     
  0.500000000000000     
  0.500000000000000     
  0.500000000000000     
  0.500000000000000     
  0.500000000000000     
  0.500000000000000     
  0.500000000000000     
  0.500000000000000     
  0.500000000000000     
  0.500000000000000     
  0.500000000000000     
  0.500000000000000     
  0.500000000000000     
  0.500000000000000     
  0.500000000000000     
  0.500000000000000     
  0.500000000000000     
  0.500000000000000     
  0.500000000000000     
  0.500000000000000     
  0.500000000000000     
  0.500000000000000     
  0.500000000000000     
  0.500000000000000     
  0.500000000000000     
  0.500000000000000     
  0.500000000000000     
  0.500000000000000     
  0.500000000000000     
  0.500000000000000     
  0.500000000000000     
  0.500000000000000     
  0.500000000000000     
  0.500000000000000     
  0.500000000000000     
  0.500000000000000     
  0.500000000000000     
  0.500000000000000     
  0.500000000000000     
  0.500000000000000     
  0.500000000000000     
  0.500000000000000     
  0.500000000000000     
  0.500000000000000     
  0.500000000000000     
  0.500000000000000     
  0.500000000000000     
  0.500000000000000     
  0.500000000000000     
  0.500000000000000     
  0.500000000000000     
  0.500000000000000     
  0.500000000000000     
  0.500000000000000     
  0.500000000000000     
  0.500000000000000     
  0.500000000000000     
  0.500000000000000     
  0.500000000000000     
  0.500000000000000     
  0.500000000000000     
  0.500000000000000     
  0.500000000000000     
  0.500000000000000     
  0.500000000000000     
  0.500000000000000     
  0.500000000000000     
  0.500000000000000     
  0.500000000000000     
  0.500000000000000     
  0.500000000000000     
  0.500000000000000     
  0.500000000000000     
  0.500000000000000     
  0.500000000000000     
  0.500000000000000     
  0.500000000000000     
  0.500000000000000     
  0.500000000000000     
  0.500000000000000     
  0.500000000000000     
  0.500000000000000     
  0.500000000000000     
  0.500000000000000     
  0.500000000000000     
  0.500000000000000     
  0.500000000000000     
  0.500000000000000     
  0.500000000000000     
  0.500000000000000     
  0.500000000000000     
  0.500000000000000     
  0.500000000000000     
  0.500000000000000     
  0.500000000000000     
  0.500000000000000     
  0.500000000000000     
  0.500000000000000     
  0.500000000000000     
  0.500000000000000     
  0.500000000000000     
  0.500000000000000     
  0.500000000000000     
  0.500000000000000     
  0.500000000000000     
  0.500000000000000     
  0.500000000000000     
  0.500000000000000     
  0.500000000000000     
  0.500000000000000     
  0.500000000000000     
  0.500000000000000     
  0.500000000000000     
  0.500000000000000     
  0.500000000000000     
  0.500000000000000     
  0.500000000000000     
  0.500000000000000     
  0.500000000000000     
  0.500000000000000     
  0.500000000000000     
  0.500000000000000     
  0.500000000000000     
  0.500000000000000     
  0.500000000000000     
  0.500000000000000     
  0.500000000000000     
  0.500000000000000     
  0.500000000000000     
  0.500000000000000     
  0.500000000000000     
  0.500000000000000     
  0.500000000000000     
  0.500000000000000     
  0.500000000000000     
  0.500000000000000     
  0.500000000000000     
  0.500000000000000     
  0.500000000000000     
  0.500000000000000     
  0.500000000000000     
  0.500000000000000     
  0.500000000000000     
  0.500000000000000     
  0.500000000000000     
  0.500000000000000     
  0.500000000000000     
  0.500000000000000     
  0.500000000000000     
  0.500000000000000     
  0.500000000000000     
  0.500000000000000     
  0.500000000000000     
  0.500000000000000     
  0.500000000000000     
  0.500000000000000     
  0.500000000000000     
  0.500000000000000     
  0.500000000000000     
  0.500000000000000     
  0.500000000000000     
  0.500000000000000     
  0.500000000000000     
  0.500000000000000     
  0.500000000000000     
  0.500000000000000     
  0.500000000000000     