# vtk DataFile Version 5.1
Data.vtk
ASCII
DATASET UNSTRUCTURED_GRID
 
POINTS 2000 float
   -8.76  -10.37   -0.49
    4.52  -13.78    1.60
   -8.24   -9.72    3.03
   -4.76  -12.11   -1.66
    2.70  -12.70    6.12
   -5.77   -9.16   -8.12
   -0.91  -13.93   -8.59
   -5.67   -9.19   -6.49
    2.44  -14.29   -5.55
   -1.16  -13.67   -0.59
    1.46  -11.18   -1.80
   -7.81   -8.47   -7.30
   -4.77  -12.75   -0.79
   -8.00  -11.04    1.64
    2.20  -11.95   -2.03
    1.57  -14.41    0.81
   -0.87  -13.50    5.80
   -9.12   -9.43    6.49
   -6.53  -12.95    7.80
   -6.90  -10.98   -3.85
  -10.41   -8.00   -0.66
   -9.31  -11.12    6.15
   -1.37  -10.62   -8.52
  -10.72   -9.38   -6.36
   -3.31  -13.12    0.43
    6.20  -13.10   -6.66
   -8.29   -9.06    5.98
   -2.00  -11.52    8.36
    4.75  -11.86   -0.10
   -0.30  -10.84    2.67
   -8.66   -8.45   -2.47
    5.95  -13.13   -1.34
    5.47  -13.14    7.07
   -5.69  -12.28   -3.01
   -5.59  -10.52   -3.74
   -8.61  -10.17    6.93
   -0.42  -11.09    7.11
   -0.64  -11.62    5.38
    4.39  -13.22    0.78
   -6.20  -11.21    1.96
   -0.97  -14.47    2.76
   -5.55   -9.54   -1.48
    1.45  -11.16   -5.26
   -7.77  -10.06    1.61
   -0.51  -10.97   -5.29
    0.49  -14.49    9.50
   -1.07  -14.46    4.36
   -3.59  -12.23   -4.88
   -2.98  -14.19    6.12
   -8.52   -9.74   -8.74
   -7.28  -10.69   -7.27
   -1.83  -10.33    9.49
    1.00  -12.04    6.73
   -3.29  -13.54    2.34
    3.27  -13.13    4.15
    3.68  -14.02    0.14
    4.47  -13.79   -7.84
    4.42  -11.48    0.77
   -1.79   -9.75   -0.87
    4.12  -12.48   -7.75
    4.21  -12.86   -1.71
    5.39  -12.66   -4.25
   -0.06  -12.65    6.92
   -9.03  -11.29    2.83
   -9.65  -10.82    2.21
   -1.16  -13.60    0.66
   -4.16  -10.15   -0.57
   -3.62  -13.40    4.23
   -6.60  -10.89   -0.66
   -7.25  -11.39   -4.94
    4.04  -11.94    5.05
  -11.91   -8.02   -6.51
   -8.17  -10.09   -2.71
    4.15  -12.89    3.70
    0.68  -14.48    5.31
   -5.07   -9.31   -4.53
    4.71  -13.71    7.39
   -3.24  -14.13   -8.43
   -1.43  -13.28    2.14
    1.73  -14.40   -2.89
   -2.09  -14.35    9.50
    3.22  -14.14    6.59
   -3.72  -12.78   -0.85
    0.88  -13.67   -9.34
  -11.05   -7.50   -7.39
   -3.48  -12.45   -6.26
   -2.76   -9.78   -0.42
    2.79  -14.23   -7.00
    4.96  -12.41    0.94
   -2.97  -13.22    8.29
   -9.18  -10.25    0.53
   -3.24  -12.64   -8.61
    3.43  -10.85   -2.11
    1.23  -10.91    4.39
   -7.56  -11.42    3.75
    5.30  -12.48   -3.27
    0.47  -12.00    1.20
    2.91  -12.14    3.89
   -8.34  -11.86   -0.41
    4.78  -11.80   -1.94
   -7.16   -9.69    2.81
    3.13  -14.16   -4.83
    4.56  -12.72    1.82
    4.24  -13.22    6.66
    3.14  -11.75    0.71
    3.07  -13.61   -8.62
   -9.86   -9.20    5.86
    1.22  -11.77   -3.48
   -6.90   -8.48    5.17
   -1.26  -12.77    2.98
    0.42  -10.99    5.01
    0.67  -13.64   -1.89
   -4.74  -13.70   -3.75
    0.45  -13.73   -7.97
   -8.43  -11.80    3.46
   -4.50  -13.02   -9.14
   -0.91  -10.19   -0.55
    2.36  -11.26   -3.42
  -10.39   -9.70    6.80
   -2.61   -9.84    6.42
   -1.54  -14.42    8.62
    0.47  -10.37    6.11
   -1.65  -12.39    8.01
    4.74  -13.70    3.63
    3.77  -12.05   -0.01
    1.45  -14.43   -5.57
   -4.88  -13.65   -7.23
   -5.32  -10.32   -0.31
   -7.83  -12.21   -9.50
   -1.40  -14.43   -9.50
   -5.43  -11.63   -3.73
    0.43  -12.80    2.67
    2.89  -13.30   -0.36
    5.87  -13.26    0.79
   -2.09  -10.13   -8.02
   -4.71  -11.33    6.77
  -12.02   -6.59   -4.80
  -12.21   -7.76   -4.35
    1.28  -13.14    9.50
  -11.06   -9.38    4.96
   -4.46  -12.84   -3.33
   -6.29   -8.86    1.11
    2.26  -12.24   -3.62
   -1.85  -10.80    6.09
    2.14  -10.94    3.94
   -9.81   -8.92    7.00
   -1.73  -11.52    5.38
    3.19  -13.14   -9.50
   -7.93  -11.20   -6.55
   -7.47   -9.84   -7.78
   -4.46  -12.97    6.15
    4.26  -11.84   -0.98
    1.42  -11.43    3.13
    4.25  -13.08   -4.59
   -3.89  -11.30   -4.04
   -3.04   -9.30    0.41
   -3.63  -10.98    1.75
    4.36  -13.83    8.33
   -1.30  -10.62    5.27
   -2.61  -14.26    3.59
    0.82  -11.94   -4.94
    1.37  -14.43    8.41
   -4.22  -12.98   -8.12
   -1.56  -14.41    1.09
   -1.88  -11.54   -8.58
    1.61  -13.43    1.60
   -5.67  -10.54   -1.30
  -11.05   -9.36   -7.97
    0.18  -14.50   -1.80
    0.94  -12.79   -7.20
   -8.13  -12.00   -1.38
    1.53  -12.05   -7.72
   -1.02  -12.69    8.90
    6.10  -13.16   -4.75
    3.66  -12.16    3.23
    4.81  -13.63   -0.04
   -3.07  -10.46    7.90
   -2.04  -10.34    7.08
    6.72  -12.85   -4.02
   -2.62  -12.50    0.05
   -8.53   -8.52   -5.54
    0.45  -14.49    1.40
   -2.43  -14.26   -0.51
   -3.93   -9.58   -8.76
   -7.05   -9.85    8.51
   -6.89  -12.75   -4.99
    2.31  -11.00   -2.34
  -13.02   -6.38   -4.53
   -5.19   -9.15    4.72
   -6.81   -8.92   -0.75
   -0.39  -13.15   -2.36
   -6.94   -9.67    5.47
   -8.68  -11.59    8.00
   -6.47   -8.37   -7.32
    3.40  -13.97   -6.03
   -6.83  -11.77    7.32
    0.50  -11.46   -8.46
   -8.74  -10.65   -5.60
   -2.54  -10.53   -1.05
   -3.75  -13.99   -3.24
   -2.53  -13.34    6.66
   -0.51  -14.49    9.49
   -3.80  -13.00   -4.23
    0.31  -12.97   -1.24
   -6.72   -9.76    0.97
   -0.35  -11.38   -4.23
   -0.08  -14.48   -8.51
   -2.90  -10.85    6.99
    3.79  -14.00   -9.29
   -4.12  -12.07   -8.51
    2.22  -13.45    6.59
   -4.19  -10.95   -8.51
    3.68  -14.03    3.96
   -5.07  -10.98   -1.96
    4.87  -12.29   -6.63
   -0.86  -14.47    0.28
    2.84  -14.22    0.79
   -3.11  -11.73    3.78
   -0.02  -11.51   -6.63
    0.02  -10.60   -0.90
    5.89  -12.61    8.35
   -5.10  -12.83    7.29
   -1.14  -11.02   -6.44
    1.57  -12.93   -1.76
   -7.08  -11.77    8.71
   -0.35  -12.27    9.50
    0.34  -10.30   -4.13
   -6.38  -12.99   -3.32
    1.13  -11.31    7.40
   -5.18   -9.93   -9.47
   -6.96   -8.94   -4.03
   -2.87  -12.95    4.79
   -6.23  -10.38   -5.63
    1.53  -12.85    6.99
   -7.78   -9.76   -4.90
   -3.68   -9.30   -1.05
    6.64  -12.73    1.21
    3.26  -14.13    1.89
   -6.72  -11.00    3.22
   -1.74  -11.20   -5.66
    2.06  -12.77    4.23
    1.52  -14.42    9.43
   -6.03   -8.22   -8.91
   -6.03  -11.37   -9.50
    0.72  -13.33    3.51
    1.45  -11.29   -0.10
   -4.91  -11.68   -9.45
    0.76  -14.48   -2.61
    1.73  -10.84    8.11
   -5.73  -10.44    8.26
    1.22  -12.06   -1.39
   -3.93   -9.37   -7.12
   -0.83  -11.35   -8.10
  -12.48   -7.36    5.88
   -2.50  -14.28    7.00
   -3.00  -12.72    3.82
    0.30  -11.88   -9.50
  -10.35   -9.77    3.86
    0.09  -11.96   -5.72
   -5.98  -12.44   -2.07
   -2.94  -14.20   -9.50
    0.85  -12.84   -8.26
    0.68  -10.81    2.86
    6.34  -13.04    7.55
   -2.11   -9.61   -4.58
  -11.33   -9.04   -4.50
   -9.50  -10.95    4.53
    7.29  -12.54    5.77
   -5.92  -10.18   -8.31
   -2.76  -10.86   -7.81
   -4.30  -13.00   -1.63
    2.02  -12.72    0.07
  -10.26  -10.24   -8.08
   -7.34  -12.50   -8.57
   -0.40  -13.63   -9.42
   -5.99  -11.14    6.23
   -2.45  -13.57    2.88
   -2.31  -13.53    8.97
   -1.28  -13.60   -7.72
   -1.81  -11.08   -0.64
   -1.42  -11.17    4.44
  -10.35  -10.15    8.39
   -6.01  -12.44   -5.36
    2.75  -12.32    9.50
    2.85  -11.23   -0.49
    3.56  -14.06    5.14
    1.89  -13.50   -0.60
    0.09  -12.76    7.93
    5.45  -13.44   -8.46
   -1.77  -14.39    6.24
   -5.54  -11.14    2.72
    4.82  -12.41    6.82
    4.39  -13.06   -2.71
    1.03  -13.78   -7.10
   -0.39  -13.77    8.81
   -7.14  -11.51   -1.24
  -12.36   -7.24   -7.31
   -0.32  -13.66    7.82
   -6.43  -10.11    4.73
   -9.74   -8.26   -5.37
   -1.49  -11.78   -0.00
  -11.39   -8.98    6.34
    0.88  -13.69    2.59
    2.92  -14.20   -1.82
   -3.38  -14.10    0.21
   -7.12  -10.81    7.70
    1.85  -14.38    6.58
  -11.73   -8.45   -5.59
    2.91  -12.56   -2.92
    2.75  -11.84    7.82
   -3.43  -12.28   -7.26
   -0.35  -13.61    6.82
    5.70  -13.33   -0.38
    2.91  -10.35   -1.16
   -2.65  -13.31   -8.16
   -0.86  -14.47   -4.45
   -4.03  -11.12   -9.48
   -0.05  -14.50   -3.20
    0.12  -11.09    0.97
    0.90  -11.85   -6.85
   -3.27  -11.54   -6.61
    5.30  -13.50   -5.72
   -2.53  -12.70   -0.93
   -4.50  -11.77   -3.37
    3.85  -12.41   -5.25
   -0.82  -14.48   -1.36
    0.59  -11.81    2.66
    0.67  -14.48    6.41
   -3.83  -11.27   -5.04
   -3.19  -11.88    1.70
    3.72  -14.02   -2.44
   -4.67  -10.89   -1.03
   -8.98   -8.08    0.34
    0.75  -12.72   -2.30
   -4.43  -11.66    8.34
    0.35  -10.88   -1.84
    4.27  -12.22    7.85
   -5.73   -9.36    1.79
    1.97  -11.53   -0.94
   -4.21  -13.87   -2.11
    4.38  -13.82   -6.07
   -3.94  -13.95   -9.50
   -5.59  -13.38    5.71
    2.82  -12.53    4.83
   -4.01  -12.12   -9.50
   -0.61  -11.97   -7.34
    2.53  -13.91    7.42
    6.64  -12.89   -2.02
   -2.64  -12.08   -3.46
   -6.18   -9.11    4.87
   -3.48   -9.42   -2.84
   -7.05   -8.74   -9.34
   -2.80   -9.53   -1.47
   -1.24  -10.59    2.39
   -0.77  -12.76   -5.81
    5.92  -13.24    6.18
   -3.26  -14.13   -4.10
   -9.00  -10.07    8.99
    4.69  -12.92    5.81
   -0.68  -10.45   -4.02
   -6.21  -11.35    8.98
   -8.62   -8.61    9.50
    2.50  -13.56   -6.22
   -6.13   -9.16    9.48
  -10.11  -10.40    9.50
    5.84  -12.31    0.46
   -2.27  -10.38    5.26
   -6.15  -12.00   -7.30
    3.86  -13.98   -6.93
    4.74  -13.70    9.50
   -7.08  -11.70   -6.72
   -0.41  -10.92   -9.50
   -5.67  -13.35   -3.94
   -5.98   -9.50    8.50
    2.74  -13.53   -2.53
   -2.71   -9.17    2.07
   -2.29  -14.24    5.40
    2.55  -14.27   -3.47
    0.04  -13.23   -5.45
   -4.08   -9.85   -6.03
   -4.71  -11.54   -7.89
    3.98  -13.94   -3.78
    1.87  -13.52   -4.05
   -3.49  -13.15    7.44
    3.39  -11.57   -3.62
   -1.19  -11.51   -9.33
    0.93  -13.53   -2.87
   -9.65  -10.82   -0.40
    0.69  -12.93   -4.58
    1.78  -12.59   -9.50
  -12.19   -7.85    8.67
   -8.97  -11.40    5.25
    5.68  -13.34   -7.49
   -1.10  -14.46    5.42
    1.99  -11.69    7.06
   -6.30  -12.96    3.44
[...]
POINT_DATA 2000
SCALARS radius float
LOOKUP_TABLE default
  0.500000000000000     
  0.500000000000000     
  0.500000000000000     
  0.500000000000000     
  0.500000000000000     
  0.500000000000000     
  0.500000000000000     
  0.500000000000000     
  0.500000000000000     
  0.500000000000000     
  0.500000000000000     
  0.500000000000000     
  0.500000000000000     
  0.500000000000000     
  0.500000000000000     
  0.500000000000000     
  0.500000000000000     
  0.500000000000000     
  0.500000000000000     
  0.500000000000000     
  0.500000000000000     
  0.500000000000000     
  0.500000000000000     
  0.500000000000000     
  0.500000000000000     
  0.500000000000000     
  0.500000000000000     
  0.500000000000000     
  0.500000000000000     
  0.500000000000000     
  0.500000000000000     
  0.500000000000000     
  0.500000000000000     
  0.500000000000000     
  0.500000000000000     
  0.500000000000000     
  0.500000000000000     
  0.500000000000000     
  0.500000000000000     
  0.500000000000000     
  0.500000000000000     
  0.500000000000000     
  0.500000000000000     
  0.500000000000000     
  0.500000000000000     
  0.500000000000000     
  0.500000000000000     
  0.500000000000000     
  0.500000000000000     
  0.500000000000000     
  0.500000000000000     
  0.500000000000000     
  0.500000000000000     
  0.500000000000000     
  0.500000000000000     
  0.500000000000000     
  0.500000000000000     
  0.500000000000000     
  0.500000000000000     
  0.500000000000000     
  0.500000000000000     
  0.500000000000000     
  0.500000000000000     
  0.500000000000000     
  0.500000000000000     
  0.500000000000000     
  0.500000000000000     
  0.500000000000000     
  0.500000000000000     
  0.500000000000000     
  0.500000000000000     
  0.500000000000000     
  0.500000000000000     
  0.500000000000000     
  0.500000000000000     
  0.500000000000000     
  0.500000000000000     
  0.500000000000000     
  0.500000000000000     
  0.500000000000000     
  0.500000000000000     
  0.500000000000000     
  0.500000000000000     
  0.500000000000000     
  0.500000000000000     
  0.500000000000000     
  0.500000000000000     
  0.500000000000000     
  0.500000000000000     
  0.500000000000000     
  0.500000000000000     
  0.500000000000000     
  0.500000000000000     
  0.500000000000000     
  0.500000000000000     
  0.500000000000000     
  0.500000000000000     
  0.500000000000000     
  0.500000000000000     
  0.500000000000000     
  0.500000000000000     
  0.500000000000000     
  0.500000000000000     
  0.500000000000000     
  0.500000000000000     
  0.500000000000000     
  0.500000000000000     
  0.500000000000000     
  0.500000000000000     
  0.500000000000000     
  0.500000000000000     
  0.500000000000000     
  0.500000000000000     
  0.500000000000000     
  0.500000000000000     
  0.500000000000000     
  0.500000000000000     
  0.500000000000000     
  0.500000000000000     
  0.500000000000000     
  0.500000000000000     
  0.500000000000000     
  0.500000000000000     
  0.500000000000000     
  0.500000000000000     
  0.500000000000000     
  0.500000000000000     
  0.500000000000000     
  0.500000000000000     
  0.500000000000000     
  0.500000000000000     
  0.500000000000000     
  0.500000000000000     
  0.500000000000000     
  0.500000000000000     
  0.500000000000000     
  0.500000000000000     
  0.500000000000000     
  0.500000000000000     
  0.500000000000000     
  0.500000000000000     
  0.500000000000000     
  0.500000000000000     
  0.500000000000000     
  0.500000000000000     
  0.500000000000000     
  0.500000000000000     
  0.500000000000000     
  0.500000000000000     
  0.500000000000000     
  0.500000000000000     
  0.500000000000000     
  0.500000000000000     
  0.500000000000000     
  0.500000000000000     
  0.500000000000000     
  0.500000000000000     
  0.500000000000000     
  0.500000000000000     
  0.500000000000000     
  0.500000000000000     
  0.500000000000000     
  0.500000000000000     
  0.500000000000000     
  0.500000000000000     
  0.500000000000000     
  0.500000000000000     
  0.500000000000000     
  0.500000000000000     
  0.500000000000000     
  0.500000000000000     
  0.500000000000000     
  0.500000000000000     
  0.500000000000000     
  0.500000000000000     
  0.500000000000000     
  0.500000000000000     
  0.500000000000000     
  0.500000000000000     
  0.500000000000000     
  0.500000000000000     
  0.500000000000000     
  0.500000000000000     
  0.500000000000000     
  0.500000000000000     
  0.500000000000000     
  0.500000000000000     
  0.500000000000000     
  0.500000000000000     
  0.500000000000000     
  0.500000000000000     
  0.500000000000000     
  0.500000000000000     
  0.500000000000000     
  0.500000000000000     
  0.500000000000000     
  0.500000000000000     
  0.500000000000000     
  0.500000000000000     
  0.500000000000000     
  0.500000000000000     
  0.500000000000000     
  0.500000000000000     
  0.500000000000000     
  0.500000000000000     
  0.500000000000000     
  0.500000000000000     
  0.500000000000000     
  0.500000000000000     
  0.500000000000000     
  0.500000000000000     
  0.500000000000000     
  0.500000000000000     
  0.500000000000000     
  0.500000000000000     
  0.500000000000000     
  0.500000000000000     
  0.500000000000000     
  0.500000000000000     
  0.500000000000000     
  0.500000000000000     
  0.500000000000000     
  0.500000000000000     
  0.500000000000000     
  0.500000000000000     
  0.500000000000000     
  0.500000000000000     
  0.500000000000000     
  0.500000000000000     
  0.500000000000000     
  0.500000000000000     
  0.500000000000000     
  0.500000000000000     
  0.500000000000000     
  0.500000000000000     
  0.500000000000000     
  0.500000000000000     
  0.500000000000000     
  0.500000000000000     
  0.500000000000000     
  0.500000000000000     
  0.500000000000000     
  0.500000000000000     
  0.500000000000000     
  0.500000000000000     
  0.500000000000000     
  0.500000000000000     
  0.500000000000000     
  0.500000000000000     
  0.500000000000000     
  0.500000000000000     
  0.500000000000000     
  0.500000000000000     
  0.500000000000000     
  0.500000000000000     
  0.500000000000000     
  0.500000000000000     
  0.500000000000000     
  0.500000000000000     
  0.500000000000000     
  0.500000000000000     
  0.500000000000000     
  0.500000000000000     
  0.500000000000000     
  0.500000000000000     
  0.500000000000000     
  0.500000000000000     
  0.500000000000000     
  0.500000000000000     
  0.500000000000000     
  0.500000000000000     
  0.500000000000000     
  0.500000000000000     
  0.500000000000000     
  0.500000000000000     
  0.500000000000000     
  0.500000000000000     
  0.500000000000000     
  0.500000000000000     
  0.500000000000000     
  0.500000000000000     
  0.500000000000000     
  0.500000000000000     
  0.500000000000000     
  0.500000000000000     
  0.500000000000000     
  0.500000000000000     
  0.500000000000000     
  0.500000000000000     
  0.500000000000000     
  0.500000000000000     
  0.500000000000000     
  0.500000000000000     
  0.500000000000000     
  0.500000000000000     
  0.500000000000000     
  0.500000000000000     
  0.500000000000000     
  0.500000000000000     
  0.500000000000000     
  0.500000000000000     
  0.500000000000000     
  0.500000000000000     
  0.500000000000000     
  0.500000000000000     
  0.500000000000000     
  0.500000000000000     
  0.500000000000000     
  0.500000000000000     
  0.500000000000000     
  0.500000000000000     
  0.500000000000000     
  0.500000000000000     
  0.500000000000000     
  0.500000000000000     
  0.500000000000000     
  0.500000000000000     
  0.500000000000000     
  0.500000000000000     
  0.500000000000000     
  0.500000000000000     
  0.500000000000000     
  0.500000000000000     
  0.500000000000000     
  0.500000000000000     
  0.500000000000000     
  0.500000000000000     
  0.500000000000000     
  0.500000000000000     
  0.500000000000000     
  0.500000000000000     
  0.500000000000000     
  0.500000000000000     
  0.500000000000000     
  0.500000000000000     
  0.500000000000000     
  0.500000000000000     
  0.500000000000000     
  0.500000000000000     
  0.500000000000000     
  0.500000000000000     
  0.500000000000000     
  0.500000000000000     
  0.500000000000000     
  0.500000000000000     
  0.500000000000000     
  0.500000000000000     
  0.500000000000000     
  0.500000000000000     
  0.500000000000000     
  0.500000000000000     
  0.500000000000000     
  0.500000000000000     
  0.500000000000000     
  0.500000000000000     
  0.500000000000000     
  0.500000000000000     
  0.500000000000000     
  0.500000000000000     
  0.500000000000000     
  0.500000000000000     
  0.500000000000000     
  0.500000000000000     
  0.500000000000000     
  0.500000000000000     
  0.500000000000000     
  0.500000000000000     
  0.500000000000000     
  0.500000000000000     
  0.500000000000000     
  0.500000000000000     
  0.500000000000000     
  0.500000000000000     
  0.500000000000000     
  0.500000000000000     
  0.500000000000000     
  0.500000000000000     
  0.500000000000000     
  0.500000000000000     
  0.500000000000000     
  0.500000000000000     
  0.500000000000000     
  0.500000000000000     
  0.500000000000000     
  0.500000000000000     
  0.500000000000000     
  0.500000000000000     
  0.500000000000000     
  0.500000000000000     
  0.500000000000000     
  0.500000000000000     
  0.500000000000000     
  0.500000000000000     
  0.500000000000000     
  0.500000000000000     
  0.500000000000000     
  0.500000000000000     
  0.500000000000000     
  0.500000000000000     
  0.500000000000000     
  0.500000000000000     
  0.500000000000000     
  0.500000000000000     
  0.500000000000000     
  0.500000000000000     
  0.500000000000000     
  0.500000000000000     
  0.500000000000000     
  0.500000000000000     
  0.500000000000000     
  0.500000000000000     
  0.500000000000000     
  0.500000000000000     
  0.500000000000000     
  0.500000000000000     
  0.500000000000000     
  0.500000000000000     
  0.500000000000000     
  0.500000000000000     
  0.500000000000000     
  0.500000000000000     
  0.500000000000000     
  0.500000000000000     
  0.500000000000000     
  0.500000000000000     
  0.500000000000000     
  0.500000000000000     
  0.500000000000000     
  0.500000000000000     
  0.500000000000000     
  0.500000000000000     
  0.500000000000000     
  0.500000000000000     
  0.500000000000000     
  0.500000000000000     
  0.500000000000000     
  0.500000000000000     
  0.500000000000000     
  0.500000000000000     
  0.500000000000000     
  0.500000000000000     
  0.500000000000000     
  0.500000000000000     
  0.500000000000000     
  0.500000000000000     
  0.500000000000000     
  0.500000000000000     
  0.500000000000000     
  0.500000000000000     
  0.500000000000000     
  0.500000000000000     
  0.500000000000000     
  0.500000000000000     
  0.500000000000000     
  0.500000000000000     
  0.500000000000000     
  0.500000000000000     
  0.500000000000000     
  0.500000000000000     
  0.500000000000000     
  0.500000000000000     
  0.500000000000000     
  0.500000000000000     
  0.500000000000000     
  0.500000000000000     
  0.500000000000000     
  0.500000000000000     
  0.500000000000000     
  0.500000000000000     
  0.500000000000000     
  0.500000000000000     
  0.500000000000000     
  0.500000000000000     
  0.500000000000000     
  0.500000000000000     
  0.500000000000000     
  0.500000000000000     
  0.500000000000000     
  0.500000000000000     
  0.500000000000000     
  0.500000000000000     
  0.500000000000000     
  0.500000000000000     
  0.500000000000000     
  0.500000000000000     
  0.500000000000000     
  0.500000000000000     
  0.500000000000000     
  0.500000000000000     
  0.500000000000000     
  0.500000000000000     
  0.500000000000000     
  0.500000000000000     
  0.500000000000000     
  0.500000000000000     
  0.500000000000000     
  0.500000000000000     
  0.500000000000000     
  0.500000000000000     
  0.500000000000000     
  0.500000000000000     
  0.500000000000000     
  0.500000000000000     
  0.500000000000000     
  0.500000000000000     
  0.500000000000000     
  0.500000000000000     
  0.500000000000000     
  0.500000000000000     
  0.500000000000000     
  0.500000000000000     
  0.500000000000000     
  0.500000000000000     
  0.500000000000000     
  0.500000000000000     
  0.500000000000000     
  0.500000000000000     
  0.500000000000000     
  0.500000000000000     
  0.500000000000000     
  0.500000000000000     
  0.500000000000000     
  0.500000000000000     
  0.500000000000000     
  0.500000000000000     
  0.500000000000000     
  0.500000000000000     
  0.500000000000000     
  0.500000000000000     
  0.500000000000000     
  0.500000000000000     
  0.500000000000000     
  0.500000000000000     
  0.500000000000000     
  0.500000000000000     
  0.500000000000000     
  0.500000000000000     
  0.500000000000000     
  0.500000000000000     
  0.500000000000000     
  0.500000000000000     
  0.500000000000000     
  0.500000000000000     
  0.500000000000000     
  0.500000000000000     
  0.500000000000000     
  0.500000000000000     
  0.500000000000000     
  0.500000000000000     
  0.500000000000000     
  0.500000000000000     
  0.500000000000000     
  0.500000000000000     
  0.500000000000000     
  0.500000000000000     
  0.500000000000000     
  0.500000000000000     
  0.500000000000000     
  0.500000000000000     
  0.500000000000000     
  0.500000000000000     
  0.500000000000000     
  0.500000000000000     
  0.500000000000000     
  0.500000000000000     
  0.500000000000000     
  0.500000000000000     
  0.500000000000000     
  0.500000000000000     
  0.500000000000000     
  0.500000000000000     
  0.500000000000000     
  0.500000000000000     
  0.500000000000000     
  0.500000000000000     
  0.500000000000000     
  0.500000000000000     
  0.500000000000000     
  0.500000000000000     
  0.500000000000000     
  0.500000000000000     
  0.500000000000000     
  0.500000000000000     
  0.500000000000000     
  0.500000000000000     
  0.500000000000000     
  0.500000000000000     
  0.500000000000000     
  0.500000000000000     
  0.500000000000000     
  0.500000000000000     
  0.500000000000000     
  0.500000000000000     
  0.500000000000000     
  0.500000000000000     
  0.500000000000000     
  0.500000000000000     
  0.500000000000000     
  0.500000000000000     
  0.500000000000000     
  0.500000000000000     
  0.500000000000000     
  0.500000000000000     
  0.500000000000000     
  0.500000000000000     
  0.500000000000000     
  0.500000000000000     
  0.500000000000000     
  0.500000000000000     
  0.500000000000000     
  0.500000000000000     
  0.500000000000000     
  0.500000000000000     
  0.500000000000000     
  0.500000000000000     
  0.500000000000000     
  0.500000000000000     
  0.500000000000000     
  0.500000000000000     
  0.500000000000000     
  0.500000000000000     
  0.500000000000000     
  0.500000000000000     
  0.500000000000000     
  0.500000000000000     
  0.500000000000000     
  0.500000000000000     
  0.500000000000000     
  0.500000000000000     
  0.500000000000000     
  0.500000000000000     
  0.500000000000000     
  0.500000000000000     
  0.500000000000000     
  0.500000000000000     
  0.500000000000000     
  0.500000000000000     
  0.500000000000000     
  0.500000000000000     
  0.500000000000000     
  0.500000000000000     
  0.500000000000000     
  0.500000000000000     
  0.500000000000000     
  0.500000000000000     
  0.500000000000000     
  0.500000000000000     
  0.500000000000000     
  0.500000000000000     
  0.500000000000000     
  0.500000000000000     
  0.500000000000000     
  0.500000000000000     
  0.500000000000000     
  0.500000000000000     
  0.500000000000000     
  0.500000000000000     
  0.500000000000000     
  0.500000000000000     
  0.500000000000000     
  0.500000000000000     
  0.500000000000000     
  0.500000000000000     
  0.500000000000000     
  0.500000000000000     
  0.500000000000000     
  0.500000000000000     
  0.500000000000000     
  0.500000000000000     
  0.500000000000000     
  0.500000000000000     
  0.500000000000000     
  0.500000000000000     
  0.500000000000000     
  0.500000000000000     
  0.500000000000000     
  0.500000000000000     
  0.500000000000000     
  0.500000000000000     
  0.500000000000000     
  0.500000000000000     
  0.500000000000000     
  0.500000000000000     
  0.500000000000000     
  0.500000000000000     
  0.500000000000000     
  0.500000000000000     
  0.500000000000000     
  0.500000000000000     
  0.500000000000000     
  0.500000000000000     
  0.500000000000000     
  0.500000000000000     
  0.500000000000000     
  0.500000000000000     
  0.500000000000000     
  0.500000000000000     
  0.500000000000000     
  0.500000000000000     
  0.500000000000000     
  0.500000000000000     
  0.500000000000000     
  0.500000000000000     
  0.500000000000000     
  0.500000000000000     
  0.500000000000000     
  0.500000000000000     
  0.500000000000000     
  0.500000000000000     
  0.500000000000000     
  0.500000000000000     
  0.500000000000000     
  0.500000000000000     
  0.500000000000000     
  0.500000000000000     
  0.500000000000000     
  0.500000000000000     
  0.500000000000000     
  0.500000000000000     
  0.500000000000000     
  0.500000000000000     
  0.500000000000000     
  0.500000000000000     
  0.500000000000000     
  0.500000000000000     
  0.500000000000000     
  0.500000000000000     
  0.500000000000000     
  0.500000000000000     
  0.500000000000000     
  0.500000000000000     
  0.500000000000000     
  0.500000000000000     
  0.500000000000000     
  0.500000000000000     
  0.500000000000000     
  0.500000000000000     
  0.500000000000000     
  0.500000000000000     
  0.500000000000000     
  0.500000000000000     
  0.500000000000000     
  0.500000000000000     
  0.500000000000000     
  0.500000000000000     
  0.500000000000000     
  0.500000000000000     
  0.500000000000000     
  0.500000000000000     
  0.500000000000000     
  0.500000000000000     
  0.500000000000000     
  0.500000000000000     
  0.500000000000000     
  0.500000000000000     
  0.500000000000000     
  0.500000000000000     
  0.500000000000000     
  0.500000000000000     
  0.500000000000000     
  0.500000000000000     
  0.500000000000000     
  0.500000000000000     
  0.500000000000000     
  0.500000000000000     
  0.500000000000000     
  0.500000000000000     
  0.500000000000000     
  0.500000000000000     
  0.500000000000000     
  0.500000000000000     
  0.500000000000000     
  0.500000000000000     
  0.500000000000000     
  0.500000000000000     
  0.500000000000000     
  0.500000000000000     
  0.500000000000000     
  0.500000000000000     
  0.500000000000000     
  0.500000000000000     
  0.500000000000000     
  0.500000000000000     
  0.500000000000000     
  0.500000000000000     
  0.500000000000000     
  0.500000000000000     
  0.500000000000000     
  0.500000000000000     
  0.500000000000000     
  0.500000000000000     
  0.500000000000000     
  0.500000000000000     
  0.500000000000000     
  0.500000000000000     
  0.500000000000000     
  0.500000000000000     