# vtk DataFile Version 5.1
Data.vtk
ASCII
DATASET UNSTRUCTURED_GRID
 
POINTS 2000 float
   -1.99  -11.27   -0.56
  -10.39  -10.04    1.82
    4.26  -12.40    2.71
   -2.78  -12.10   -1.49
   -4.65  -12.78    7.55
   -1.67  -11.45   -9.31
  -11.73   -6.04   -7.34
    2.04  -13.43   -8.46
  -11.77   -8.00   -4.73
   -5.17  -12.67   -0.60
   -1.27  -14.44   -4.54
   -3.64  -12.31   -9.33
   -1.20  -10.92   -1.53
   -4.83  -11.78    0.64
    3.11  -14.16   -1.48
  -11.85   -8.20    1.07
   -8.04  -10.73    5.96
    2.72  -12.02    4.56
   -4.29  -10.04    5.69
    4.66  -12.55   -4.44
    4.16  -13.89   -1.00
   -1.37  -10.66    4.69
   -7.60  -10.06   -9.49
    0.69  -11.25   -4.19
   -2.42  -12.18   -0.56
  -11.07   -9.37   -8.62
    4.12  -13.71    6.94
   -0.88  -11.80    7.20
   -6.75  -12.81   -1.20
   -1.24  -14.45    9.47
    3.74  -12.35   -3.58
   -8.84  -11.49   -1.92
  -12.39   -7.52    8.50
   -7.75  -10.90   -2.82
    2.67  -13.36   -4.54
   -1.76  -10.52    5.92
   -8.01  -12.09    9.50
   -1.00  -13.71    6.04
   -2.62  -14.25    1.49
   -4.45  -12.02    1.61
  -11.19   -7.24    2.25
    5.71  -13.33   -1.51
   -4.39  -13.82   -8.44
   -0.98  -12.41    0.88
   -4.70  -12.88   -8.62
  -11.43   -6.57    2.96
   -8.10   -7.77    3.67
   -0.30  -11.91   -4.50
  -12.60   -5.94    2.79
    0.76  -11.37   -5.51
   -4.90  -10.01   -4.87
   -2.62  -11.70    9.42
   -3.72  -13.08    7.92
   -6.34  -11.87    2.22
   -7.89  -12.16    5.17
   -9.45   -9.77    0.72
  -12.10   -7.99   -7.66
   -0.43  -14.49    3.18
    1.94  -14.37    1.47
   -9.48   -9.22   -9.12
    0.77  -14.48   -2.68
   -3.09  -14.17   -9.42
   -2.53  -11.84    6.86
   -0.83  -10.85    2.98
   -5.03  -10.08    0.58
   -4.64  -12.68    0.25
    3.60  -13.26   -3.17
   -7.89  -11.06    3.86
    3.11  -11.99   -1.97
   -8.90   -9.66   -2.83
   -9.46  -10.98    8.46
    1.70  -11.34   -5.09
   -3.60  -11.07   -2.91
   -9.00  -11.37    6.57
  -12.30   -7.36    4.96
    5.47  -13.43   -7.75
  -12.79   -6.61    8.40
   -5.85   -8.69   -5.07
   -5.08  -12.61    2.15
  -12.26   -7.70   -2.84
   -5.94   -8.48    7.42
  -11.79   -8.44    6.57
    0.64  -12.58   -1.89
  -13.53   -4.37   -6.73
    1.73  -12.17   -7.06
   -6.36  -10.65   -5.12
    5.37  -13.47    2.23
   -9.57   -9.61   -6.38
   -4.48  -13.76   -0.22
   -8.13   -9.74    6.07
   -6.34  -10.92    0.29
   -1.35  -11.02   -6.93
   -4.31  -13.84   -3.78
   -4.33  -13.84    9.50
   -5.65  -10.06    2.24
   -8.01  -12.05   -3.63
    0.61  -14.43    2.74
   -2.80  -13.47    5.67
   -5.59   -9.21   -1.21
   -4.79  -13.68   -1.97
    1.76  -12.02    1.62
  -10.17   -8.92   -4.12
   -7.60  -12.32    1.23
  -11.98   -8.15    7.50
   -0.50  -14.49    2.18
  -12.94   -6.53   -7.89
   -5.01  -10.71    3.98
   -5.38  -13.47   -3.80
    5.54  -12.54    6.96
   -0.02  -13.07    3.78
   -4.41  -13.77    7.54
   -2.40  -13.55   -2.43
   -8.35   -8.83   -2.74
   -6.03   -9.31   -7.06
   -2.63  -10.36    1.95
   -7.22   -8.44   -8.03
    1.17  -14.45    0.73
   -5.24  -13.52   -7.90
    2.13  -11.61    2.47
   -5.37  -12.15    9.44
   -5.53   -8.73    5.57
  -10.42  -10.09    9.36
   -0.23  -12.05    8.70
   -9.04  -11.32    4.10
   -5.17  -13.54    0.47
  -12.48   -7.32   -4.53
   -4.07   -9.44   -3.42
    4.78  -13.68    3.11
   -2.84   -9.14   -5.08
   -6.92   -8.46   -7.01
   -3.68  -12.37   -3.78
   -7.37  -12.48    3.28
   -9.99  -10.51   -0.61
   -9.10  -11.24    0.44
   -4.07  -12.38   -8.02
    0.89  -12.54    6.42
    3.86  -13.13   -4.27
    4.08  -11.99   -2.57
   -9.70   -7.75    9.09
   -0.10  -10.87    2.09
   -8.54  -10.48   -3.31
    5.01  -13.61    4.08
   -3.29  -12.88   -6.42
   -3.15  -13.87    9.47
   -6.94  -12.73    6.49
    2.16  -12.26    7.57
   -2.00  -12.75    5.45
  -13.20   -5.29   -9.12
   -2.39  -10.60   -4.34
    1.00  -11.72   -8.66
   -6.13  -11.32    4.52
   -6.59  -12.92   -2.19
   -6.24  -13.08    5.75
   -8.13  -11.98   -6.22
    4.22  -12.81   -5.44
    3.19  -14.14    1.82
    2.45  -14.22    2.49
  -12.87   -6.41    7.39
   -2.14  -13.58    7.22
   -9.72   -8.12    4.98
   -4.45  -13.80   -7.31
  -13.83   -4.35    7.31
   -1.90  -10.21   -6.75
   -7.16   -8.34    0.16
   -6.43  -10.74   -8.26
   -8.25  -11.91    1.88
    1.62  -13.80   -2.31
    2.93  -12.48   -6.18
  -11.92   -7.04   -1.14
   -6.80  -11.78   -7.47
   -3.97  -10.00    0.70
   -7.38  -11.31   -8.13
   -5.73  -11.12    7.94
   -7.42  -12.46   -6.72
   -0.45  -13.15    5.40
   -9.46  -10.98   -1.33
   -3.19  -11.51    8.53
   -6.46  -11.89    9.50
   -7.48  -12.33   -5.27
   -1.67  -13.18   -0.52
    2.65  -14.26   -9.50
  -12.43   -7.47    1.45
   -6.64   -8.79   -0.92
   -6.87  -10.72   -9.26
   -4.13  -10.87    7.97
   -4.83  -10.05   -2.81
   -0.72  -14.44   -6.38
    3.47  -12.40   -4.93
   -0.77  -14.48    7.31
    4.58  -12.92   -1.68
   -3.36  -13.16   -2.47
    0.60  -11.96    4.13
   -4.40   -9.96    7.66
   -2.10  -12.36   -9.49
  -11.71   -8.55   -5.57
   -8.08   -9.31    5.13
  -10.75   -9.73   -9.50
   -1.87  -10.29   -3.49
    5.28  -13.42   -0.57
   -9.55   -9.31   -1.59
   -8.92   -9.83    4.97
   -8.22   -7.77    8.54
   -3.23  -10.90   -3.88
   -1.12  -13.19   -1.35
    2.70  -13.27    2.30
    2.11  -13.42   -9.45
  -10.44   -7.23   -5.79
   -6.08  -12.85    9.50
  -13.73   -4.66   -8.44
   -3.11  -11.91   -8.58
   -6.91  -11.77    6.77
   -3.87  -10.64   -6.75
   -9.92   -9.57    2.81
    1.86  -12.95   -3.09
  -11.39   -8.96   -9.47
  -12.54   -6.69   -0.36
  -10.87   -9.40    1.18
    3.74  -13.12    4.56
   -2.58  -12.37   -7.15
    2.78  -14.23   -5.02
  -13.68   -4.34    9.12
   -7.30   -9.89    5.39
   -2.40  -13.86   -8.63
   -2.62  -13.33   -3.39
   -3.27   -9.71    9.45
   -5.48   -8.83    8.23
    0.47  -14.49   -9.50
   -5.40   -9.23   -2.76
   -3.67  -11.76    9.46
   -1.15  -11.89   -8.58
    5.52  -13.41   -3.28
   -4.30  -11.42    4.13
    0.27  -12.97   -6.86
   -4.17  -11.87    7.91
    2.59  -14.27   -8.50
    2.11  -14.35   -3.00
   -7.77  -12.20    0.25
  -11.05   -9.36    2.16
   -2.94  -11.34    3.04
   -1.56  -13.20   -7.21
   -1.47  -13.68    5.15
  -12.83   -5.13    5.93
   -1.19  -13.45   -9.50
   -2.12  -11.73   -8.44
  -12.05   -8.02    4.08
   -3.49  -13.85    1.21
   -3.10  -11.48   -9.50
  -12.53   -7.29   -1.96
  -13.51   -5.26    9.47
   -2.42  -11.56    7.84
   -0.41  -13.82   -2.99
   -5.82  -12.87   -9.50
   -7.33  -10.34   -8.46
    2.00  -11.18    6.63
   -8.10   -8.70    4.34
   -2.02  -11.66    3.27
   -9.75   -7.34   -9.21
    2.76  -11.82    1.64
   -1.97  -14.10   -7.57
   -6.75  -10.80   -0.61
   -5.18   -8.69   -9.48
  -10.92   -8.31   -7.27
   -2.43  -14.29    7.85
  -11.85   -8.36    8.47
    1.71  -14.40   -8.03
   -0.30  -10.75   -2.19
    0.64  -10.76    0.92
  -11.70   -8.57    9.44
   -1.46  -12.15   -6.98
   -4.65  -11.87   -8.66
   -6.39  -11.79   -0.20
   -1.50  -13.70    0.93
    3.80  -12.96   -8.06
   -0.86  -10.32   -3.29
   -8.24   -8.46   -7.41
    3.19  -12.39    8.28
   -5.31  -11.58    3.32
   -9.58   -7.93    6.63
   -9.18   -8.27   -8.55
    2.86  -14.21   -0.47
    0.53  -13.52    6.09
   -0.68  -10.01    5.23
   -6.93  -10.02   -4.59
   -6.48   -9.57    9.08
   -3.85  -13.98   -2.12
  -11.54   -8.78    5.58
   -0.12  -13.80   -1.30
   -5.13  -11.86    7.63
  -12.10   -7.54   -8.55
   -9.04   -7.76    2.55
    1.84  -13.40    2.81
  -12.25   -7.73    9.50
   -8.93  -11.42   -3.38
   -7.38  -10.80   -6.50
  -11.11   -7.89    7.97
   -8.31  -10.29    0.05
   -0.67  -11.23   -5.15
   -9.62   -9.50    7.60
    1.33  -12.37    4.85
    6.66  -12.88   -4.64
    2.48  -12.51    0.13
    0.28  -11.04    3.05
   -3.48  -13.12    3.03
  -11.35   -8.87   -2.19
   -8.76   -8.12   -0.80
    0.20  -11.81    5.98
  -11.36   -7.29    6.08
    3.05  -13.21   -5.49
   -4.84  -13.63   -2.97
   -9.39   -9.83    9.50
   -6.34  -10.63   -6.12
   -7.63  -10.41    6.81
   -8.75  -11.56   -0.92
   -3.16  -14.15   -1.11
   -9.16   -8.70   -6.45
   -6.55   -9.65   -3.73
   -4.33   -9.92   -9.50
  -12.76   -6.83   -2.83
    2.68  -14.16    5.83
   -5.60  -12.46   -8.61
    0.82  -12.09   -7.47
  -10.09  -10.40   -6.05
   -0.55  -12.42   -2.15
   -0.32  -11.94   -3.31
   -8.36  -11.85   -5.25
  -12.87   -6.62   -1.30
   -5.45  -13.44    5.07
  -10.56   -6.84    5.51
   -0.66  -13.45   -6.79
    1.28  -12.97    1.55
  -10.26  -10.24   -3.24
    0.27  -12.97   -0.09
    5.09  -12.51    2.13
   -1.31  -13.59   -3.59
    2.30  -13.35    8.72
   -0.83  -14.48   -3.62
   -8.78  -10.36    8.87
    3.64  -13.95    6.04
    1.39  -14.43   -0.43
   -8.54   -9.75   -1.53
  -10.47  -10.03   -5.20
   -5.51   -9.09   -8.18
   -3.56   -8.94    4.30
   -3.49  -13.10    6.29
   -3.14  -10.35   -8.60
   -3.12  -12.68   -7.94
  -12.95   -6.44    6.40
   -7.36  -12.49   -3.00
   -1.76  -12.80   -4.01
   -0.83  -14.48    8.35
    0.78  -14.48   -5.16
   -4.56  -10.97   -9.10
    1.80  -14.39   -5.23
   -4.46  -13.76    5.80
   -3.99  -12.11   -5.22
  -11.36   -8.92    7.34
   -6.71   -9.16   -2.67
    0.42  -10.77    6.18
  -10.81   -9.65    5.60
   -4.08  -13.91   -9.49
    1.39  -11.23    7.41
    0.77  -11.91    8.86
  -11.85   -8.11   -6.45
   -4.01  -10.42    9.50
   -1.99   -9.95    4.26
   -4.25  -13.86    1.88
   -3.47  -14.08    7.38
    2.24  -11.77   -6.04
  -11.08   -9.36   -5.66
  -14.05   -3.50    9.50
   -1.94  -11.25   -3.74
   -8.48   -9.58   -9.39
   -8.64   -8.13   -3.42
   -3.10  -12.58    9.49
   -8.62  -11.66   -4.31
    2.47  -14.29    4.30
   -7.11   -8.37    3.98
  -11.73   -8.52   -3.06
   -6.48  -11.93   -4.41
   -6.97  -12.71   -9.26
   -2.88  -10.68   -6.91
  -10.80   -9.68   -3.93
   -4.17  -12.99   -5.95
   -6.70  -10.64    5.67
   -2.09  -14.35   -9.45
   -9.72   -8.31   -9.44
  -11.11   -9.30   -3.06
   -4.49  -10.75    1.11
    2.32  -13.99   -7.32
  -11.42   -7.00   -9.23
    1.74  -11.52    8.81
   -5.60   -9.70    3.61
  -11.46   -8.65   -8.05
   -8.70   -8.53    5.15
   -9.70  -10.78    9.41
   -4.42  -10.01    2.22
[...]
POINT_DATA 2000
SCALARS radius float
LOOKUP_TABLE default
  0.500000000000000     
  0.500000000000000     
  0.500000000000000     
  0.500000000000000     
  0.500000000000000     
  0.500000000000000     
  0.500000000000000     
  0.500000000000000     
  0.500000000000000     
  0.500000000000000     
  0.500000000000000     
  0.500000000000000     
  0.500000000000000     
  0.500000000000000     
  0.500000000000000     
  0.500000000000000     
  0.500000000000000     
  0.500000000000000     
  0.500000000000000     
  0.500000000000000     
  0.500000000000000     
  0.500000000000000     
  0.500000000000000     
  0.500000000000000     
  0.500000000000000     
  0.500000000000000     
  0.500000000000000     
  0.500000000000000     
  0.500000000000000     
  0.500000000000000     
  0.500000000000000     
  0.500000000000000     
  0.500000000000000     
  0.500000000000000     
  0.500000000000000     
  0.500000000000000     
  0.500000000000000     
  0.500000000000000     
  0.500000000000000     
  0.500000000000000     
  0.500000000000000     
  0.500000000000000     
  0.500000000000000     
  0.500000000000000     
  0.500000000000000     
  0.500000000000000     
  0.500000000000000     
  0.500000000000000     
  0.500000000000000     
  0.500000000000000     
  0.500000000000000     
  0.500000000000000     
  0.500000000000000     
  0.500000000000000     
  0.500000000000000     
  0.500000000000000     
  0.500000000000000     
  0.500000000000000     
  0.500000000000000     
  0.500000000000000     
  0.500000000000000     
  0.500000000000000     
  0.500000000000000     
  0.500000000000000     
  0.500000000000000     
  0.500000000000000     
  0.500000000000000     
  0.500000000000000     
  0.500000000000000     
  0.500000000000000     
  0.500000000000000     
  0.500000000000000     
  0.500000000000000     
  0.500000000000000     
  0.500000000000000     
  0.500000000000000     
  0.500000000000000     
  0.500000000000000     
  0.500000000000000     
  0.500000000000000     
  0.500000000000000     
  0.500000000000000     
  0.500000000000000     
  0.500000000000000     
  0.500000000000000     
  0.500000000000000     
  0.500000000000000     
  0.500000000000000     
  0.500000000000000     
  0.500000000000000     
  0.500000000000000     
  0.500000000000000     
  0.500000000000000     
  0.500000000000000     
  0.500000000000000     
  0.500000000000000     
  0.500000000000000     
  0.500000000000000     
  0.500000000000000     
  0.500000000000000     
  0.500000000000000     
  0.500000000000000     
  0.500000000000000     
  0.500000000000000     
  0.500000000000000     
  0.500000000000000     
  0.500000000000000     
  0.500000000000000     
  0.500000000000000     
  0.500000000000000     
  0.500000000000000     
  0.500000000000000     
  0.500000000000000     
  0.500000000000000     
  0.500000000000000     
  0.500000000000000     
  0.500000000000000     
  0.500000000000000     
  0.500000000000000     
  0.500000000000000     
  0.500000000000000     
  0.500000000000000     
  0.500000000000000     
  0.500000000000000     
  0.500000000000000     
  0.500000000000000     
  0.500000000000000     
  0.500000000000000     
  0.500000000000000     
  0.500000000000000     
  0.500000000000000     
  0.500000000000000     
  0.500000000000000     
  0.500000000000000     
  0.500000000000000     
  0.500000000000000     
  0.500000000000000     
  0.500000000000000     
  0.500000000000000     
  0.500000000000000     
  0.500000000000000     
  0.500000000000000     
  0.500000000000000     
  0.500000000000000     
  0.500000000000000     
  0.500000000000000     
  0.500000000000000     
  0.500000000000000     
  0.500000000000000     
  0.500000000000000     
  0.500000000000000     
  0.500000000000000     
  0.500000000000000     
  0.500000000000000     
  0.500000000000000     
  0.500000000000000     
  0.500000000000000     
  0.500000000000000     
  0.500000000000000     
  0.500000000000000     
  0.500000000000000     
  0.500000000000000     
  0.500000000000000     
  0.500000000000000     
  0.500000000000000     
  0.500000000000000     
  0.500000000000000     
  0.500000000000000     
  0.500000000000000     
  0.500000000000000     
  0.500000000000000     
  0.500000000000000     
  0.500000000000000     
  0.500000000000000     
  0.500000000000000     
  0.500000000000000     
  0.500000000000000     
  0.500000000000000     
  0.500000000000000     
  0.500000000000000     
  0.500000000000000     
  0.500000000000000     
  0.500000000000000     
  0.500000000000000     
  0.500000000000000     
  0.500000000000000     
  0.500000000000000     
  0.500000000000000     
  0.500000000000000     
  0.500000000000000     
  0.500000000000000     
  0.500000000000000     
  0.500000000000000     
  0.500000000000000     
  0.500000000000000     
  0.500000000000000     
  0.500000000000000     
  0.500000000000000     
  0.500000000000000     
  0.500000000000000     
  0.500000000000000     
  0.500000000000000     
  0.500000000000000     
  0.500000000000000     
  0.500000000000000     
  0.500000000000000     
  0.500000000000000     
  0.500000000000000     
  0.500000000000000     
  0.500000000000000     
  0.500000000000000     
  0.500000000000000     
  0.500000000000000     
  0.500000000000000     
  0.500000000000000     
  0.500000000000000     
  0.500000000000000     
  0.500000000000000     
  0.500000000000000     
  0.500000000000000     
  0.500000000000000     
  0.500000000000000     
  0.500000000000000     
  0.500000000000000     
  0.500000000000000     
  0.500000000000000     
  0.500000000000000     
  0.500000000000000     
  0.500000000000000     
  0.500000000000000     
  0.500000000000000     
  0.500000000000000     
  0.500000000000000     
  0.500000000000000     
  0.500000000000000     
  0.500000000000000     
  0.500000000000000     
  0.500000000000000     
  0.500000000000000     
  0.500000000000000     
  0.500000000000000     
  0.500000000000000     
  0.500000000000000     
  0.500000000000000     
  0.500000000000000     
  0.500000000000000     
  0.500000000000000     
  0.500000000000000     
  0.500000000000000     
  0.500000000000000     
  0.500000000000000     
  0.500000000000000     
  0.500000000000000     
  0.500000000000000     
  0.500000000000000     
  0.500000000000000     
  0.500000000000000     
  0.500000000000000     
  0.500000000000000     
  0.500000000000000     
  0.500000000000000     
  0.500000000000000     
  0.500000000000000     
  0.500000000000000     
  0.500000000000000     
  0.500000000000000     
  0.500000000000000     
  0.500000000000000     
  0.500000000000000     
  0.500000000000000     
  0.500000000000000     
  0.500000000000000     
  0.500000000000000     
  0.500000000000000     
  0.500000000000000     
  0.500000000000000     
  0.500000000000000     
  0.500000000000000     
  0.500000000000000     
  0.500000000000000     
  0.500000000000000     
  0.500000000000000     
  0.500000000000000     
  0.500000000000000     
  0.500000000000000     
  0.500000000000000     
  0.500000000000000     
  0.500000000000000     
  0.500000000000000     
  0.500000000000000     
  0.500000000000000     
  0.500000000000000     
  0.500000000000000     
  0.500000000000000     
  0.500000000000000     
  0.500000000000000     
  0.500000000000000     
  0.500000000000000     
  0.500000000000000     
  0.500000000000000     
  0.500000000000000     
  0.500000000000000     
  0.500000000000000     
  0.500000000000000     
  0.500000000000000     
  0.500000000000000     
  0.500000000000000     
  0.500000000000000     
  0.500000000000000     
  0.500000000000000     
  0.500000000000000     
  0.500000000000000     
  0.500000000000000     
  0.500000000000000     
  0.500000000000000     
  0.500000000000000     
  0.500000000000000     
  0.500000000000000     
  0.500000000000000     
  0.500000000000000     
  0.500000000000000     
  0.500000000000000     
  0.500000000000000     
  0.500000000000000     
  0.500000000000000     
  0.500000000000000     
  0.500000000000000     
  0.500000000000000     
  0.500000000000000     
  0.500000000000000     
  0.500000000000000     
  0.500000000000000     
  0.500000000000000     
  0.500000000000000     
  0.500000000000000     
  0.500000000000000     
  0.500000000000000     
  0.500000000000000     
  0.500000000000000     
  0.500000000000000     
  0.500000000000000     
  0.500000000000000     
  0.500000000000000     
  0.500000000000000     
  0.500000000000000     
  0.500000000000000     
  0.500000000000000     
  0.500000000000000     
  0.500000000000000     
  0.500000000000000     
  0.500000000000000     
  0.500000000000000     
  0.500000000000000     
  0.500000000000000     
  0.500000000000000     
  0.500000000000000     
  0.500000000000000     
  0.500000000000000     
  0.500000000000000     
  0.500000000000000     
  0.500000000000000     
  0.500000000000000     
  0.500000000000000     
  0.500000000000000     
  0.500000000000000     
  0.500000000000000     
  0.500000000000000     
  0.500000000000000     
  0.500000000000000     
  0.500000000000000     
  0.500000000000000     
  0.500000000000000     
  0.500000000000000     
  0.500000000000000     
  0.500000000000000     
  0.500000000000000     
  0.500000000000000     
  0.500000000000000     
  0.500000000000000     
  0.500000000000000     
  0.500000000000000     
  0.500000000000000     
  0.500000000000000     
  0.500000000000000     
  0.500000000000000     
  0.500000000000000     
  0.500000000000000     
  0.500000000000000     
  0.500000000000000     
  0.500000000000000     
  0.500000000000000     
  0.500000000000000     
  0.500000000000000     
  0.500000000000000     
  0.500000000000000     
  0.500000000000000     
  0.500000000000000     
  0.500000000000000     
  0.500000000000000     
  0.500000000000000     
  0.500000000000000     
  0.500000000000000     
  0.500000000000000     
  0.500000000000000     
  0.500000000000000     
  0.500000000000000     
  0.500000000000000     
  0.500000000000000     
  0.500000000000000     
  0.500000000000000     
  0.500000000000000     
  0.500000000000000     
  0.500000000000000     
  0.500000000000000     
  0.500000000000000     
  0.500000000000000     
  0.500000000000000     
  0.500000000000000     
  0.500000000000000     
  0.500000000000000     
  0.500000000000000     
  0.500000000000000     
  0.500000000000000     
  0.500000000000000     
  0.500000000000000     
  0.500000000000000     
  0.500000000000000     
  0.500000000000000     
  0.500000000000000     
  0.500000000000000     
  0.500000000000000     
  0.500000000000000     
  0.500000000000000     
  0.500000000000000     
  0.500000000000000     
  0.500000000000000     
  0.500000000000000     
  0.500000000000000     
  0.500000000000000     
  0.500000000000000     
  0.500000000000000     
  0.500000000000000     
  0.500000000000000     
  0.500000000000000     
  0.500000000000000     
  0.500000000000000     
  0.500000000000000     
  0.500000000000000     
  0.500000000000000     
  0.500000000000000     
  0.500000000000000     
  0.500000000000000     
  0.500000000000000     
  0.500000000000000     
  0.500000000000000     
  0.500000000000000     
  0.500000000000000     
  0.500000000000000     
  0.500000000000000     
  0.500000000000000     
  0.500000000000000     
  0.500000000000000     
  0.500000000000000     
  0.500000000000000     
  0.500000000000000     
  0.500000000000000     
  0.500000000000000     
  0.500000000000000     
  0.500000000000000     
  0.500000000000000     
  0.500000000000000     
  0.500000000000000     
  0.500000000000000     
  0.500000000000000     
  0.500000000000000     
  0.500000000000000     
  0.500000000000000     
  0.500000000000000     
  0.500000000000000     
  0.500000000000000     
  0.500000000000000     
  0.500000000000000     
  0.500000000000000     
  0.500000000000000     
  0.500000000000000     
  0.500000000000000     
  0.500000000000000     
  0.500000000000000     
  0.500000000000000     
  0.500000000000000     
  0.500000000000000     
  0.500000000000000     
  0.500000000000000     
  0.500000000000000     
  0.500000000000000     
  0.500000000000000     
  0.500000000000000     
  0.500000000000000     
  0.500000000000000     
  0.500000000000000     
  0.500000000000000     
  0.500000000000000     
  0.500000000000000     
  0.500000000000000     
  0.500000000000000     
  0.500000000000000     
  0.500000000000000     
  0.500000000000000     
  0.500000000000000     
  0.500000000000000     
  0.500000000000000     
  0.500000000000000     
  0.500000000000000     
  0.500000000000000     
  0.500000000000000     
  0.500000000000000     
  0.500000000000000     
  0.500000000000000     
  0.500000000000000     
  0.500000000000000     
  0.500000000000000     
  0.500000000000000     
  0.500000000000000     
  0.500000000000000     
  0.500000000000000     
  0.500000000000000     
  0.500000000000000     
  0.500000000000000     
  0.500000000000000     
  0.500000000000000     
  0.500000000000000     
  0.500000000000000     
  0.500000000000000     
  0.500000000000000     
  0.500000000000000     
  0.500000000000000     
  0.500000000000000     
  0.500000000000000     
  0.500000000000000     
  0.500000000000000     
  0.500000000000000     
  0.500000000000000     
  0.500000000000000     
  0.500000000000000     
  0.500000000000000     
  0.500000000000000     
  0.500000000000000     
  0.500000000000000     
  0.500000000000000     
  0.500000000000000     
  0.500000000000000     
  0.500000000000000     
  0.500000000000000     
  0.500000000000000     
  0.500000000000000     
  0.500000000000000     
  0.500000000000000     
  0.500000000000000     
  0.500000000000000     
  0.500000000000000     
  0.500000000000000     
  0.500000000000000     
  0.500000000000000     
  0.500000000000000     
  0.500000000000000     
  0.500000000000000     
  0.500000000000000     
  0.500000000000000     
  0.500000000000000     
  0.500000000000000     
  0.500000000000000     
  0.500000000000000     
  0.500000000000000     
  0.500000000000000     
  0.500000000000000     
  0.500000000000000     
  0.500000000000000     
  0.500000000000000     
  0.500000000000000     
  0.500000000000000     
  0.500000000000000     
  0.500000000000000     
  0.500000000000000     
  0.500000000000000     
  0.500000000000000     
  0.500000000000000     
  0.500000000000000     
  0.500000000000000     
  0.500000000000000     
  0.500000000000000     
  0.500000000000000     
  0.500000000000000     
  0.500000000000000     
  0.500000000000000     
  0.500000000000000     
  0.500000000000000     
  0.500000000000000     
  0.500000000000000     
  0.500000000000000     
  0.500000000000000     
  0.500000000000000     
  0.500000000000000     
  0.500000000000000     
  0.500000000000000     
  0.500000000000000     
  0.500000000000000     
  0.500000000000000     
  0.500000000000000     
  0.500000000000000     
  0.500000000000000     
  0.500000000000000     
  0.500000000000000     
  0.500000000000000     
  0.500000000000000     
  0.500000000000000     
  0.500000000000000     
  0.500000000000000     
  0.500000000000000     
  0.500000000000000     
  0.500000000000000     
  0.500000000000000     
  0.500000000000000     
  0.500000000000000     
  0.500000000000000     
  0.500000000000000     
  0.500000000000000     
  0.500000000000000     
  0.500000000000000     
  0.500000000000000     
  0.500000000000000     
  0.500000000000000     
  0.500000000000000     
  0.500000000000000     
  0.500000000000000     
  0.500000000000000     
  0.500000000000000     
  0.500000000000000     
  0.500000000000000     
  0.500000000000000     
  0.500000000000000     
  0.500000000000000     
  0.500000000000000     
  0.500000000000000     
  0.500000000000000     
  0.500000000000000     
  0.500000000000000     
  0.500000000000000     
  0.500000000000000     
  0.500000000000000     
  0.500000000000000     
  0.500000000000000     
  0.500000000000000     
  0.500000000000000     
  0.500000000000000     
  0.500000000000000     
  0.500000000000000     
  0.500000000000000     
  0.500000000000000     
  0.500000000000000     
  0.500000000000000     
  0.500000000000000     
  0.500000000000000     
  0.500000000000000     
  0.500000000000000     
  0.500000000000000     
  0.500000000000000     
  0.500000000000000     
  0.500000000000000     
  0.500000000000000     
  0.500000000000000     
  0.500000000000000     
  0.500000000000000     
  0.500000000000000     
  0.500000000000000     
  0.500000000000000     
  0.500000000000000     
  0.500000000000000     
  0.500000000000000     
  0.500000000000000     
  0.500000000000000     
  0.500000000000000     
  0.500000000000000     
  0.500000000000000     
  0.500000000000000     
  0.500000000000000     
  0.500000000000000     
  0.500000000000000     
  0.500000000000000     
  0.500000000000000     
  0.500000000000000     
  0.500000000000000     
  0.500000000000000     
  0.500000000000000     
  0.500000000000000     
  0.500000000000000     
  0.500000000000000     
  0.500000000000000     
  0.500000000000000     
  0.500000000000000     
  0.500000000000000     
  0.500000000000000     
  0.500000000000000     
  0.500000000000000     
  0.500000000000000     
  0.500000000000000     
  0.500000000000000     
  0.500000000000000     
  0.500000000000000     
  0.500000000000000     
  0.500000000000000     
  0.500000000000000     
  0.500000000000000     
  0.500000000000000     
  0.500000000000000     
  0.500000000000000     
  0.500000000000000     
  0.500000000000000     
  0.500000000000000     
  0.500000000000000     
  0.500000000000000     
  0.500000000000000     
  0.500000000000000     
  0.500000000000000     
  0.500000000000000     
  0.500000000000000     
  0.500000000000000     
  0.500000000000000     
  0.500000000000000     
  0.500000000000000     
  0.500000000000000     
  0.500000000000000     
  0.500000000000000     
  0.500000000000000     
  0.500000000000000     
  0.500000000000000     
  0.500000000000000     
  0.500000000000000     
  0.500000000000000     
  0.500000000000000     
  0.500000000000000     
  0.500000000000000     
  0.500000000000000     
  0.500000000000000     
  0.500000000000000     
  0.500000000000000     
  0.500000000000000     
  0.500000000000000     
  0.500000000000000     
  0.500000000000000     
  0.500000000000000     
  0.500000000000000     
  0.500000000000000     
  0.500000000000000     
  0.500000000000000     
  0.500000000000000     
  0.500000000000000     
  0.500000000000000     
  0.500000000000000     
  0.500000000000000     
  0.500000000000000     
  0.500000000000000     
  0.500000000000000     
  0.500000000000000     
  0.500000000000000     
  0.500000000000000     
  0.500000000000000     
  0.500000000000000     
  0.500000000000000     
  0.500000000000000     
  0.500000000000000     
  0.500000000000000     
  0.500000000000000     
  0.500000000000000     
  0.500000000000000     
  0.500000000000000     
  0.500000000000000     
  0.500000000000000     
  0.500000000000000     
  0.500000000000000     
  0.500000000000000     
  0.500000000000000     
  0.500000000000000     
  0.500000000000000     
  0.500000000000000     
  0.500000000000000     
  0.500000000000000     
  0.500000000000000     
  0.500000000000000     
  0.500000000000000     
  0.500000000000000     
  0.500000000000000     
  0.500000000000000     
  0.500000000000000     
  0.500000000000000     
  0.500000000000000     
  0.500000000000000     
  0.500000000000000     