# vtk DataFile Version 5.1
Data.vtk
ASCII
DATASET UNSTRUCTURED_GRID
 
POINTS 2000 float
   -7.07  -10.37   -0.35
   -8.36  -11.85    2.09
    3.02  -12.45    1.06
    2.29  -12.00   -1.05
   -9.52   -9.61    8.59
   -5.45   -8.93   -6.67
   -6.74   -8.40   -3.82
   -1.94  -11.89   -8.57
   -1.29  -13.70   -8.76
   -3.84  -11.71   -0.63
   -8.44  -11.79   -6.65
   -7.71  -11.26   -7.10
   -8.19   -8.18   -2.03
   -1.89  -12.73    4.98
    1.99  -14.36   -0.86
   -8.84   -8.33    3.40
   -5.90  -13.25    7.17
   -2.43  -10.67    4.31
    1.35  -11.25    6.09
   -0.54  -14.49   -9.43
    5.12  -13.57   -0.52
    1.18  -11.37   -0.27
   -4.44  -10.48   -9.25
   -2.30  -14.32   -8.34
   -5.77  -11.08   -1.99
   -2.64  -14.25    1.44
   -2.39  -13.53    7.03
    0.45  -11.31    8.55
   -6.78  -12.82   -6.42
  -11.55   -6.57    9.50
    0.06  -13.10   -6.64
   -9.22  -10.01    1.40
   -1.49  -10.42    4.64
   -4.29  -12.85   -3.05
    3.95  -13.95   -6.41
    2.41  -11.74    7.31
  -13.15   -6.09    8.58
    2.24  -13.38    6.80
   -3.11  -14.16    2.31
   -3.04  -13.16    3.84
   -7.19   -9.59   -1.74
    3.83  -13.43   -2.55
   -3.71  -12.44   -5.95
   -3.52  -11.31    0.94
   -8.79  -10.24   -8.43
   -7.49   -9.07    3.13
    1.94  -11.26    3.85
    1.68  -13.94   -6.07
   -4.58  -13.76    0.47
    2.80  -14.23   -7.20
    3.00  -12.30   -4.85
    1.87  -12.56    8.31
   -8.87   -7.16    7.35
   -1.90  -13.63    2.60
  -11.60   -8.58    6.43
   -1.79  -13.94   -2.05
  -11.76   -6.28   -6.35
    0.79  -13.54    4.75
    2.08  -14.35    1.00
   -6.25   -8.80   -8.08
   -4.20  -13.87   -2.71
   -6.88   -8.06   -9.20
   -3.20  -10.47    6.06
    3.99  -12.37   -1.94
   -7.55   -9.31    0.59
    2.81  -14.22    4.52
    3.70  -12.95   -8.91
  -11.83   -8.19    4.74
   -0.80  -11.04   -7.24
   -7.17  -11.33   -2.14
   -4.65  -13.73    8.47
   -8.16  -11.45   -9.50
   -2.40   -9.85   -5.99
  -10.87   -9.54    5.24
   -1.93   -9.53    4.57
  -11.28   -9.04   -9.48
  -11.68   -6.19    3.89
    1.17  -11.27   -5.40
   -3.42  -13.24    1.96
  -11.45   -8.81    0.46
   -0.49  -11.17    7.91
   -8.05   -8.22    0.97
   -3.63  -10.37   -4.07
   -4.72   -8.71   -8.52
    2.07  -13.54   -8.51
   -4.53  -10.83   -8.25
    1.08  -14.46    5.13
   -9.98   -6.77   -5.33
   -6.34  -13.04    2.80
   -5.12  -11.95    6.82
  -10.25  -10.26   -0.18
   -1.62  -14.41   -9.50
  -13.83   -4.36   -6.50
  -12.92   -6.59    9.41
    0.95  -10.72    7.90
   -7.09  -11.52   -3.36
    5.25  -13.51    6.32
   -2.40  -14.29    5.68
   -1.61  -10.85   -5.26
    1.00  -14.38   -3.51
    1.84  -11.76    2.28
  -12.60   -6.60   -7.80
   -8.06  -12.05    3.20
  -13.58   -4.71    7.74
    4.08  -13.91    2.86
   -7.77   -7.69   -5.66
    4.13  -11.60    3.57
  -13.26   -5.87   -7.60
    2.83  -12.46    8.65
    3.01  -13.30    3.12
  -12.32   -7.39    9.50
    2.12  -12.69   -2.35
   -7.29   -9.04   -0.89
   -7.82   -8.68   -5.60
   -3.68  -10.33    2.26
  -10.81   -7.44   -7.55
    2.88  -14.21   -0.38
   -6.62  -11.85   -6.63
    2.62  -13.26    9.50
   -8.80   -8.11    5.35
   -0.28  -11.15    4.16
   -6.61   -8.65    8.76
   -8.63  -10.48    9.12
  -10.57   -9.69    4.29
  -11.32   -8.34   -1.93
  -11.89   -8.29   -3.54
    2.06  -11.58   -5.73
    0.68  -14.48    9.50
   -0.96  -11.99   -8.16
    2.03  -12.58   -8.79
   -2.39  -12.43   -3.83
   -0.19  -13.72    7.04
  -10.78   -9.70   -2.20
  -10.54   -9.95   -1.09
   -4.00  -13.11   -8.82
    1.21  -12.03    8.97
    0.24  -14.49   -8.63
   -0.20  -11.38   -4.60
   -1.94  -10.05    7.41
   -1.66  -10.90    0.57
  -11.90   -8.20   -1.12
    4.80  -12.62    0.34
   -5.01  -12.88   -7.99
  -10.18   -7.47    6.10
   -2.76  -13.44    6.10
    3.31  -14.12    8.65
    0.69  -13.40    7.70
   -1.63  -11.12   -7.79
   -0.18  -11.81   -7.46
   -7.31   -8.63   -7.96
   -8.98   -9.43    6.36
   -6.67  -12.87   -0.66
    3.13  -13.49    7.42
   -9.51  -10.92   -8.59
   -0.75  -14.48   -8.45
    1.33  -12.56    1.87
   -1.34  -12.81    1.01
   -2.90   -9.31    4.44
   -7.85  -10.99    9.48
   -1.25  -10.41    2.79
  -13.46   -5.17   -8.28
   -6.77   -9.08    7.71
    0.30  -11.65   -5.93
   -5.77  -10.16    2.48
  -11.33   -7.17   -6.49
   -3.61  -14.04    1.39
    1.65  -14.39   -2.25
   -0.09  -13.59   -9.50
  -12.18   -7.23   -1.62
   -5.08  -11.62   -8.52
   -3.76  -10.24    1.26
   -0.93  -12.91   -6.62
   -5.34   -9.69    6.91
   -9.11  -10.12   -7.25
    3.30  -12.62    6.80
  -12.13   -7.86    2.89
   -2.26  -12.00    9.50
  -10.69   -6.34    7.70
   -6.69  -12.86   -7.49
   -2.66  -11.61   -0.61
   -5.87  -13.26   -6.34
   -9.16   -8.32    2.45
   -3.89   -9.37    2.45
   -5.49  -10.71   -6.85
   -8.11   -9.10    9.11
   -2.43   -9.39   -1.82
    5.45  -13.44   -4.07
    0.35  -12.64   -5.79
   -5.46  -13.43    5.70
    2.54  -11.83   -3.81
    0.55  -13.63   -1.13
   -0.97  -11.22    4.99
   -3.58  -14.05    9.50
   -5.39  -10.21   -9.08
   -8.21   -8.79   -3.94
   -0.55  -10.37    5.33
  -10.01   -8.82   -6.74
    1.22  -10.85   -4.49
    2.24  -13.41   -4.75
   -3.94  -12.89    0.41
   -4.61  -11.62    6.01
    0.32  -11.55    6.21
   -5.27   -9.76   -7.20
    0.58  -12.37   -2.69
   -5.74   -9.29    4.64
   -2.59  -12.55   -8.03
   -7.52   -8.33   -4.55
  -13.22   -5.64    9.50
  -12.12   -6.29   -8.62
  -10.24  -10.23   -8.65
   -7.13  -11.78    7.12
    0.68  -12.55   -8.77
  -12.27   -6.77    6.66
   -2.96  -10.78   -6.11
   -9.92   -7.61   -5.88
   -4.10  -13.91    3.08
   -8.78  -11.54    3.97
    2.86  -11.93    9.50
   -7.95   -9.39   -9.46
   -4.63  -13.71   -7.60
   -3.75  -12.07    5.78
   -7.43   -7.97    2.79
   -2.95  -14.20   -6.43
    2.56  -14.27   -4.32
    1.77  -13.43    7.68
   -0.12  -13.88    9.48
   -2.17  -13.44   -7.87
   -4.05   -9.97   -0.76
   -7.04  -11.58    9.48
   -5.13  -11.29   -7.58
    2.98  -14.19   -3.41
    0.61  -10.66    1.12
    0.98  -13.79   -7.05
   -4.36  -11.86    7.46
   -6.97  -11.66   -7.64
   -4.11  -13.91   -1.71
    2.64  -14.26   -2.29
   -7.00  -10.63    2.19
   -6.90  -11.68    2.95
   -1.34  -13.60   -7.22
   -6.46  -12.98    3.91
    3.06  -11.47    4.12
  -10.04   -9.04   -9.48
   -2.94  -11.79   -8.64
   -5.84   -8.56    5.34
    5.11  -13.57    2.41
  -10.76   -6.19   -7.98
  -12.15   -7.77    3.89
   -9.00   -9.63    9.50
   -4.12  -12.31    9.50
    2.66  -12.83   -4.04
  -10.33   -9.02   -8.53
   -9.46   -9.51   -8.45
    5.15  -12.71    6.90
   -4.88   -8.98    1.29
    1.34  -11.30    0.87
   -2.47  -11.59   -9.50
   -0.63  -12.16    4.96
   -4.77  -12.66   -6.34
   -9.60  -10.77   -2.70
   -1.88  -12.20   -7.03
   -6.39  -11.83   -5.65
  -10.30  -10.20    6.08
   -8.47   -8.02    4.33
   -7.51  -12.35   -8.13
   -1.74  -10.84   -2.75
    2.80  -12.05    1.95
  -11.10   -9.13    9.50
   -1.86  -12.88   -8.65
  -10.78   -7.06   -8.49
   -5.56  -13.39   -0.69
    4.59  -12.03    1.20
   -9.53   -9.90   -9.37
   -2.14  -10.39   -6.79
  -10.55   -7.98   -6.75
   -3.68  -12.22    8.10
   -9.99   -9.31    6.61
   -6.62   -9.30    3.81
   -6.20   -8.35   -6.35
    2.03  -14.36    2.12
    1.45  -12.93    5.29
    4.03  -13.93    7.51
   -5.97   -8.80   -4.39
   -1.79  -12.88    9.49
    1.46  -13.66   -2.91
  -12.17   -4.33    9.50
    1.63  -12.80   -3.39
   -6.83   -8.65    6.81
   -6.80   -7.69   -4.81
   -1.92  -11.09    3.10
    5.42  -13.45    1.29
   -3.99   -9.75    4.20
   -1.70  -14.40   -3.72
   -7.95  -10.05   -5.91
   -2.10  -10.01    9.50
   -3.44  -14.09   -5.57
   -1.48  -11.51   -6.04
   -6.30  -11.46    6.64
   -4.59  -10.69    5.64
    2.62  -14.26   -6.22
   -4.19  -11.06   -1.40
    2.90  -11.67    5.55
    0.00  -12.77    4.03
  -10.67   -9.82   -7.76
   -5.65   -9.89   -0.52
    2.60  -14.27    9.50
   -7.19  -10.29    6.68
    1.57  -14.40   -4.35
   -9.32   -9.74   -2.76
   -5.86   -8.35    7.01
   -4.39   -9.29   -1.41
   -4.18  -12.42    6.66
  -10.89   -9.53    0.04
   -8.58  -11.66   -3.34
    1.49  -13.03   -9.50
   -2.28  -10.77   -8.46
   -2.39  -10.60   -9.48
   -4.95  -12.86   -0.10
    0.89  -14.47    8.52
   -6.01  -11.84   -7.42
   -3.39  -11.20   -9.42
   -6.98   -7.94   -2.96
    5.05  -13.07   -4.91
    4.39  -13.82   -3.28
  -10.05  -10.31   -1.89
  -10.16  -10.34    2.57
   -8.87  -11.47    2.97
    0.23  -11.77    9.50
    1.69  -13.10   -6.67
   -7.25  -11.56    5.07
   -9.49   -9.01   -0.32
   -3.38  -10.90   -1.98
    6.86  -12.78    4.26
    4.57  -13.76   -5.46
    0.26  -13.70    8.55
   -6.46  -12.91   -4.22
   -9.30   -7.77    6.55
   -7.95  -12.12    7.57
    5.56  -13.39    3.51
  -11.31   -7.39   -1.13
  -12.40   -7.43   -3.58
   -0.97  -13.11   -9.50
    1.92  -11.99    5.72
   -0.99  -12.75    7.25
   -4.64   -9.51   -9.13
   -5.80  -10.93   -8.51
   -6.59   -8.51    4.61
  -11.82   -7.42   -4.85
   -8.75   -9.49   -6.56
   -6.80  -12.81    6.96
   -3.07  -14.15   -7.72
   -6.73   -9.03   -9.00
   -0.73  -14.48   -3.48
   -3.83  -13.98    5.62
   -2.97  -10.93   -4.59
   -3.84   -9.14    3.42
   -5.97   -9.77   -6.33
   -2.76  -14.23    8.20
   -9.83   -9.64    7.54
   -6.52  -11.83   -9.49
   -5.68  -13.34    8.52
    0.83  -12.88    8.61
   -8.69   -8.21   -5.44
   -5.47   -9.50    8.51
    4.27  -12.70    2.62
   -9.02  -11.35   -0.86
   -8.34  -11.86    9.50
   -0.03  -14.50   -4.20
   -9.24   -8.11   -2.77
  -11.01   -7.51    6.95
   -4.12   -9.69   -4.63
    0.77  -11.27   -6.76
   -4.95   -9.84   -3.89
   -9.99   -9.59    9.47
  -13.09   -6.05   -8.57
    2.14  -14.34    5.81
   -3.43   -9.99    8.52
  -11.12   -7.50    3.23
    0.81  -13.83   -4.67
   -1.90   -9.42   -6.86
    3.97  -13.95   -8.35
   -7.52  -12.39   -5.83
    0.27  -14.50   -5.29
   -7.03  -10.63    7.60
   -6.38  -11.90   -8.41
   -2.16   -8.78   -9.50
  -10.30   -8.69   -0.92
   -2.47  -10.05    1.86
   -3.18  -13.24   -6.25
    0.53  -11.04   -2.71
   -6.07  -11.36    9.50
   -4.62   -9.20    6.19
   -8.91   -7.43   -9.49
   -4.96   -9.50    5.29
   -8.52   -9.33    8.06
    1.16  -11.54    3.04
[...]
POINT_DATA 2000
SCALARS radius float
LOOKUP_TABLE default
  0.500000000000000     
  0.500000000000000     
  0.500000000000000     
  0.500000000000000     
  0.500000000000000     
  0.500000000000000     
  0.500000000000000     
  0.500000000000000     
  0.500000000000000     
  0.500000000000000     
  0.500000000000000     
  0.500000000000000     
  0.500000000000000     
  0.500000000000000     
  0.500000000000000     
  0.500000000000000     
  0.500000000000000     
  0.500000000000000     
  0.500000000000000     
  0.500000000000000     
  0.500000000000000     
  0.500000000000000     
  0.500000000000000     
  0.500000000000000     
  0.500000000000000     
  0.500000000000000     
  0.500000000000000     
  0.500000000000000     
  0.500000000000000     
  0.500000000000000     
  0.500000000000000     
  0.500000000000000     
  0.500000000000000     
  0.500000000000000     
  0.500000000000000     
  0.500000000000000     
  0.500000000000000     
  0.500000000000000     
  0.500000000000000     
  0.500000000000000     
  0.500000000000000     
  0.500000000000000     
  0.500000000000000     
  0.500000000000000     
  0.500000000000000     
  0.500000000000000     
  0.500000000000000     
  0.500000000000000     
  0.500000000000000     
  0.500000000000000     
  0.500000000000000     
  0.500000000000000     
  0.500000000000000     
  0.500000000000000     
  0.500000000000000     
  0.500000000000000     
  0.500000000000000     
  0.500000000000000     
  0.500000000000000     
  0.500000000000000     
  0.500000000000000     
  0.500000000000000     
  0.500000000000000     
  0.500000000000000     
  0.500000000000000     
  0.500000000000000     
  0.500000000000000     
  0.500000000000000     
  0.500000000000000     
  0.500000000000000     
  0.500000000000000     
  0.500000000000000     
  0.500000000000000     
  0.500000000000000     
  0.500000000000000     
  0.500000000000000     
  0.500000000000000     
  0.500000000000000     
  0.500000000000000     
  0.500000000000000     
  0.500000000000000     
  0.500000000000000     
  0.500000000000000     
  0.500000000000000     
  0.500000000000000     
  0.500000000000000     
  0.500000000000000     
  0.500000000000000     
  0.500000000000000     
  0.500000000000000     
  0.500000000000000     
  0.500000000000000     
  0.500000000000000     
  0.500000000000000     
  0.500000000000000     
  0.500000000000000     
  0.500000000000000     
  0.500000000000000     
  0.500000000000000     
  0.500000000000000     
  0.500000000000000     
  0.500000000000000     
  0.500000000000000     
  0.500000000000000     
  0.500000000000000     
  0.500000000000000     
  0.500000000000000     
  0.500000000000000     
  0.500000000000000     
  0.500000000000000     
  0.500000000000000     
  0.500000000000000     
  0.500000000000000     
  0.500000000000000     
  0.500000000000000     
  0.500000000000000     
  0.500000000000000     
  0.500000000000000     
  0.500000000000000     
  0.500000000000000     
  0.500000000000000     
  0.500000000000000     
  0.500000000000000     
  0.500000000000000     
  0.500000000000000     
  0.500000000000000     
  0.500000000000000     
  0.500000000000000     
  0.500000000000000     
  0.500000000000000     
  0.500000000000000     
  0.500000000000000     
  0.500000000000000     
  0.500000000000000     
  0.500000000000000     
  0.500000000000000     
  0.500000000000000     
  0.500000000000000     
  0.500000000000000     
  0.500000000000000     
  0.500000000000000     
  0.500000000000000     
  0.500000000000000     
  0.500000000000000     
  0.500000000000000     
  0.500000000000000     
  0.500000000000000     
  0.500000000000000     
  0.500000000000000     
  0.500000000000000     
  0.500000000000000     
  0.500000000000000     
  0.500000000000000     
  0.500000000000000     
  0.500000000000000     
  0.500000000000000     
  0.500000000000000     
  0.500000000000000     
  0.500000000000000     
  0.500000000000000     
  0.500000000000000     
  0.500000000000000     
  0.500000000000000     
  0.500000000000000     
  0.500000000000000     
  0.500000000000000     
  0.500000000000000     
  0.500000000000000     
  0.500000000000000     
  0.500000000000000     
  0.500000000000000     
  0.500000000000000     
  0.500000000000000     
  0.500000000000000     
  0.500000000000000     
  0.500000000000000     
  0.500000000000000     
  0.500000000000000     
  0.500000000000000     
  0.500000000000000     
  0.500000000000000     
  0.500000000000000     
  0.500000000000000     
  0.500000000000000     
  0.500000000000000     
  0.500000000000000     
  0.500000000000000     
  0.500000000000000     
  0.500000000000000     
  0.500000000000000     
  0.500000000000000     
  0.500000000000000     
  0.500000000000000     
  0.500000000000000     
  0.500000000000000     
  0.500000000000000     
  0.500000000000000     
  0.500000000000000     
  0.500000000000000     
  0.500000000000000     
  0.500000000000000     
  0.500000000000000     
  0.500000000000000     
  0.500000000000000     
  0.500000000000000     
  0.500000000000000     
  0.500000000000000     
  0.500000000000000     
  0.500000000000000     
  0.500000000000000     
  0.500000000000000     
  0.500000000000000     
  0.500000000000000     
  0.500000000000000     
  0.500000000000000     
  0.500000000000000     
  0.500000000000000     
  0.500000000000000     
  0.500000000000000     
  0.500000000000000     
  0.500000000000000     
  0.500000000000000     
  0.500000000000000     
  0.500000000000000     
  0.500000000000000     
  0.500000000000000     
  0.500000000000000     
  0.500000000000000     
  0.500000000000000     
  0.500000000000000     
  0.500000000000000     
  0.500000000000000     
  0.500000000000000     
  0.500000000000000     
  0.500000000000000     
  0.500000000000000     
  0.500000000000000     
  0.500000000000000     
  0.500000000000000     
  0.500000000000000     
  0.500000000000000     
  0.500000000000000     
  0.500000000000000     
  0.500000000000000     
  0.500000000000000     
  0.500000000000000     
  0.500000000000000     
  0.500000000000000     
  0.500000000000000     
  0.500000000000000     
  0.500000000000000     
  0.500000000000000     
  0.500000000000000     
  0.500000000000000     
  0.500000000000000     
  0.500000000000000     
  0.500000000000000     
  0.500000000000000     
  0.500000000000000     
  0.500000000000000     
  0.500000000000000     
  0.500000000000000     
  0.500000000000000     
  0.500000000000000     
  0.500000000000000     
  0.500000000000000     
  0.500000000000000     
  0.500000000000000     
  0.500000000000000     
  0.500000000000000     
  0.500000000000000     
  0.500000000000000     
  0.500000000000000     
  0.500000000000000     
  0.500000000000000     
  0.500000000000000     
  0.500000000000000     
  0.500000000000000     
  0.500000000000000     
  0.500000000000000     
  0.500000000000000     
  0.500000000000000     
  0.500000000000000     
  0.500000000000000     
  0.500000000000000     
  0.500000000000000     
  0.500000000000000     
  0.500000000000000     
  0.500000000000000     
  0.500000000000000     
  0.500000000000000     
  0.500000000000000     
  0.500000000000000     
  0.500000000000000     
  0.500000000000000     
  0.500000000000000     
  0.500000000000000     
  0.500000000000000     
  0.500000000000000     
  0.500000000000000     
  0.500000000000000     
  0.500000000000000     
  0.500000000000000     
  0.500000000000000     
  0.500000000000000     
  0.500000000000000     
  0.500000000000000     
  0.500000000000000     
  0.500000000000000     
  0.500000000000000     
  0.500000000000000     
  0.500000000000000     
  0.500000000000000     
  0.500000000000000     
  0.500000000000000     
  0.500000000000000     
  0.500000000000000     
  0.500000000000000     
  0.500000000000000     
  0.500000000000000     
  0.500000000000000     
  0.500000000000000     
  0.500000000000000     
  0.500000000000000     
  0.500000000000000     
  0.500000000000000     
  0.500000000000000     
  0.500000000000000     
  0.500000000000000     
  0.500000000000000     
  0.500000000000000     
  0.500000000000000     
  0.500000000000000     
  0.500000000000000     
  0.500000000000000     
  0.500000000000000     
  0.500000000000000     
  0.500000000000000     
  0.500000000000000     
  0.500000000000000     
  0.500000000000000     
  0.500000000000000     
  0.500000000000000     
  0.500000000000000     
  0.500000000000000     
  0.500000000000000     
  0.500000000000000     
  0.500000000000000     
  0.500000000000000     
  0.500000000000000     
  0.500000000000000     
  0.500000000000000     
  0.500000000000000     
  0.500000000000000     
  0.500000000000000     
  0.500000000000000     
  0.500000000000000     
  0.500000000000000     
  0.500000000000000     
  0.500000000000000     
  0.500000000000000     
  0.500000000000000     
  0.500000000000000     
  0.500000000000000     
  0.500000000000000     
  0.500000000000000     
  0.500000000000000     
  0.500000000000000     
  0.500000000000000     
  0.500000000000000     
  0.500000000000000     
  0.500000000000000     
  0.500000000000000     
  0.500000000000000     
  0.500000000000000     
  0.500000000000000     
  0.500000000000000     
  0.500000000000000     
  0.500000000000000     
  0.500000000000000     
  0.500000000000000     
  0.500000000000000     
  0.500000000000000     
  0.500000000000000     
  0.500000000000000     
  0.500000000000000     
  0.500000000000000     
  0.500000000000000     
  0.500000000000000     
  0.500000000000000     
  0.500000000000000     
  0.500000000000000     
  0.500000000000000     
  0.500000000000000     
  0.500000000000000     
  0.500000000000000     
  0.500000000000000     
  0.500000000000000     
  0.500000000000000     
  0.500000000000000     
  0.500000000000000     
  0.500000000000000     
  0.500000000000000     
  0.500000000000000     
  0.500000000000000     
  0.500000000000000     
  0.500000000000000     
  0.500000000000000     
  0.500000000000000     
  0.500000000000000     
  0.500000000000000     
  0.500000000000000     
  0.500000000000000     
  0.500000000000000     
  0.500000000000000     
  0.500000000000000     
  0.500000000000000     
  0.500000000000000     
  0.500000000000000     
  0.500000000000000     
  0.500000000000000     
  0.500000000000000     
  0.500000000000000     
  0.500000000000000     
  0.500000000000000     
  0.500000000000000     
  0.500000000000000     
  0.500000000000000     
  0.500000000000000     
  0.500000000000000     
  0.500000000000000     
  0.500000000000000     
  0.500000000000000     
  0.500000000000000     
  0.500000000000000     
  0.500000000000000     
  0.500000000000000     
  0.500000000000000     
  0.500000000000000     
  0.500000000000000     
  0.500000000000000     
  0.500000000000000     
  0.500000000000000     
  0.500000000000000     
  0.500000000000000     
  0.500000000000000     
  0.500000000000000     
  0.500000000000000     
  0.500000000000000     
  0.500000000000000     
  0.500000000000000     
  0.500000000000000     
  0.500000000000000     
  0.500000000000000     
  0.500000000000000     
  0.500000000000000     
  0.500000000000000     
  0.500000000000000     
  0.500000000000000     
  0.500000000000000     
  0.500000000000000     
  0.500000000000000     
  0.500000000000000     
  0.500000000000000     
  0.500000000000000     
  0.500000000000000     
  0.500000000000000     
  0.500000000000000     
  0.500000000000000     
  0.500000000000000     
  0.500000000000000     
  0.500000000000000     
  0.500000000000000     
  0.500000000000000     
  0.500000000000000     
  0.500000000000000     
  0.500000000000000     
  0.500000000000000     
  0.500000000000000     
  0.500000000000000     
  0.500000000000000     
  0.500000000000000     
  0.500000000000000     
  0.500000000000000     
  0.500000000000000     
  0.500000000000000     
  0.500000000000000     
  0.500000000000000     
  0.500000000000000     
  0.500000000000000     
  0.500000000000000     
  0.500000000000000     
  0.500000000000000     
  0.500000000000000     
  0.500000000000000     
  0.500000000000000     
  0.500000000000000     
  0.500000000000000     
  0.500000000000000     
  0.500000000000000     
  0.500000000000000     
  0.500000000000000     
  0.500000000000000     
  0.500000000000000     
  0.500000000000000     
  0.500000000000000     
  0.500000000000000     
  0.500000000000000     
  0.500000000000000     
  0.500000000000000     
  0.500000000000000     
  0.500000000000000     
  0.500000000000000     
  0.500000000000000     
  0.500000000000000     
  0.500000000000000     
  0.500000000000000     
  0.500000000000000     
  0.500000000000000     
  0.500000000000000     
  0.500000000000000     
  0.500000000000000     
  0.500000000000000     
  0.500000000000000     
  0.500000000000000     
  0.500000000000000     
  0.500000000000000     
  0.500000000000000     
  0.500000000000000     
  0.500000000000000     
  0.500000000000000     
  0.500000000000000     
  0.500000000000000     
  0.500000000000000     
  0.500000000000000     
  0.500000000000000     
  0.500000000000000     
  0.500000000000000     
  0.500000000000000     
  0.500000000000000     
  0.500000000000000     
  0.500000000000000     
  0.500000000000000     
  0.500000000000000     
  0.500000000000000     
  0.500000000000000     
  0.500000000000000     
  0.500000000000000     
  0.500000000000000     
  0.500000000000000     
  0.500000000000000     
  0.500000000000000     
  0.500000000000000     
  0.500000000000000     
  0.500000000000000     
  0.500000000000000     
  0.500000000000000     
  0.500000000000000     
  0.500000000000000     
  0.500000000000000     
  0.500000000000000     
  0.500000000000000     
  0.500000000000000     
  0.500000000000000     
  0.500000000000000     
  0.500000000000000     
  0.500000000000000     
  0.500000000000000     
  0.500000000000000     
  0.500000000000000     
  0.500000000000000     
  0.500000000000000     
  0.500000000000000     
  0.500000000000000     
  0.500000000000000     
  0.500000000000000     
  0.500000000000000     
  0.500000000000000     
  0.500000000000000     
  0.500000000000000     
  0.500000000000000     
  0.500000000000000     
  0.500000000000000     
  0.500000000000000     
  0.500000000000000     
  0.500000000000000     
  0.500000000000000     
  0.500000000000000     
  0.500000000000000     
  0.500000000000000     
  0.500000000000000     
  0.500000000000000     
  0.500000000000000     
  0.500000000000000     
  0.500000000000000     
  0.500000000000000     
  0.500000000000000     
  0.500000000000000     
  0.500000000000000     
  0.500000000000000     
  0.500000000000000     
  0.500000000000000     
  0.500000000000000     
  0.500000000000000     
  0.500000000000000     
  0.500000000000000     
  0.500000000000000     
  0.500000000000000     
  0.500000000000000     
  0.500000000000000     
  0.500000000000000     
  0.500000000000000     
  0.500000000000000     
  0.500000000000000     
  0.500000000000000     
  0.500000000000000     
  0.500000000000000     
  0.500000000000000     
  0.500000000000000     
  0.500000000000000     
  0.500000000000000     
  0.500000000000000     
  0.500000000000000     
  0.500000000000000     
  0.500000000000000     
  0.500000000000000     
  0.500000000000000     
  0.500000000000000     
  0.500000000000000     
  0.500000000000000     
  0.500000000000000     
  0.500000000000000     
  0.500000000000000     
  0.500000000000000     
  0.500000000000000     
  0.500000000000000     
  0.500000000000000     
  0.500000000000000     
  0.500000000000000     
  0.500000000000000     
  0.500000000000000     
  0.500000000000000     
  0.500000000000000     
  0.500000000000000     
  0.500000000000000     
  0.500000000000000     
  0.500000000000000     
  0.500000000000000     
  0.500000000000000     
  0.500000000000000     
  0.500000000000000     
  0.500000000000000     
  0.500000000000000     
  0.500000000000000     
  0.500000000000000     
  0.500000000000000     
  0.500000000000000     
  0.500000000000000     
  0.500000000000000     
  0.500000000000000     
  0.500000000000000     
  0.500000000000000     
  0.500000000000000     
  0.500000000000000     
  0.500000000000000     
  0.500000000000000     
  0.500000000000000     
  0.500000000000000     
  0.500000000000000     
  0.500000000000000     
  0.500000000000000     
  0.500000000000000     
  0.500000000000000     
  0.500000000000000     
  0.500000000000000     
  0.500000000000000     
  0.500000000000000     
  0.500000000000000     
  0.500000000000000     
  0.500000000000000     
  0.500000000000000     
  0.500000000000000     
  0.500000000000000     
  0.500000000000000     
  0.500000000000000     
  0.500000000000000     
  0.500000000000000     
  0.500000000000000     
  0.500000000000000     
  0.500000000000000     
  0.500000000000000     
  0.500000000000000     
  0.500000000000000     
  0.500000000000000     
  0.500000000000000     
  0.500000000000000     
  0.500000000000000     
  0.500000000000000     
  0.500000000000000     
  0.500000000000000     
  0.500000000000000     
  0.500000000000000     
  0.500000000000000     
  0.500000000000000     
  0.500000000000000     
  0.500000000000000     
  0.500000000000000     
  0.500000000000000     
  0.500000000000000     
  0.500000000000000     
  0.500000000000000     
  0.500000000000000     
  0.500000000000000     
  0.500000000000000     
  0.500000000000000     
  0.500000000000000     
  0.500000000000000     
  0.500000000000000     
  0.500000000000000     
  0.500000000000000     
  0.500000000000000     
  0.500000000000000     
  0.500000000000000     
  0.500000000000000     
  0.500000000000000     
  0.500000000000000     
  0.500000000000000     
  0.500000000000000     
  0.500000000000000     
  0.500000000000000     
  0.500000000000000     
  0.500000000000000     
  0.500000000000000     
  0.500000000000000     
  0.500000000000000     
  0.500000000000000     
  0.500000000000000     
  0.500000000000000     
  0.500000000000000     
  0.500000000000000     
  0.500000000000000     
  0.500000000000000     
  0.500000000000000     
  0.500000000000000     
  0.500000000000000     
  0.500000000000000     
  0.500000000000000     
  0.500000000000000     
  0.500000000000000     
  0.500000000000000     
  0.500000000000000     
  0.500000000000000     
  0.500000000000000     
  0.500000000000000     
  0.500000000000000     
  0.500000000000000     
  0.500000000000000     
  0.500000000000000     
  0.500000000000000     
  0.500000000000000     
  0.500000000000000     
  0.500000000000000     
  0.500000000000000     
  0.500000000000000     
  0.500000000000000     
  0.500000000000000     
  0.500000000000000     
  0.500000000000000     
  0.500000000000000     
  0.500000000000000     
  0.500000000000000     
  0.500000000000000     
  0.500000000000000     
  0.500000000000000     
  0.500000000000000     
  0.500000000000000     
  0.500000000000000     
  0.500000000000000     
  0.500000000000000     
  0.500000000000000     
  0.500000000000000     
  0.500000000000000     
  0.500000000000000     
  0.500000000000000     
  0.500000000000000     
  0.500000000000000     
  0.500000000000000     
  0.500000000000000     
  0.500000000000000     
  0.500000000000000     
  0.500000000000000     
  0.500000000000000     
  0.500000000000000     
  0.500000000000000     
  0.500000000000000     
  0.500000000000000     
  0.500000000000000     