# vtk DataFile Version 5.1
Data.vtk
ASCII
DATASET UNSTRUCTURED_GRID
 
POINTS 2000 float
    0.93  -13.61    0.65
    9.40   -9.89   -0.54
   -1.01  -14.46    5.73
    0.67  -13.65   -1.75
   -4.22  -11.61    7.26
    0.08  -13.73   -8.76
    3.82  -10.65   -8.54
   -1.66  -13.13   -8.61
    4.43  -10.82   -3.93
    7.10  -11.56    0.85
   -2.09  -13.10   -1.00
    0.22  -14.50   -8.13
    3.69  -12.82    0.31
   -0.01  -13.73    2.99
    2.83  -12.76   -0.89
    6.11  -10.74    2.04
    5.06  -10.53    5.48
    1.50  -13.75    7.59
   11.70   -8.56    8.06
    1.33  -13.60   -3.87
    1.22  -14.44   -1.50
   10.10  -10.40    6.89
   -1.93  -11.45   -8.77
    8.01  -12.09   -7.33
    6.15  -12.28    1.67
   -2.93  -11.76   -0.15
    2.51  -14.28    9.50
    0.68  -12.44    7.42
   -6.92  -11.40    1.68
   -6.10  -13.16    4.18
    1.39  -14.42   -3.30
    3.22  -11.00   -0.89
    1.52  -10.96    4.88
    3.26  -13.38   -3.18
   -4.84  -13.67   -3.73
    5.09  -12.82    8.02
   -0.34  -13.04    7.27
   -1.35  -12.85    5.95
    0.16  -11.42    0.87
    0.76  -13.88    3.67
    8.08   -8.72    4.91
   -3.56  -14.06   -0.25
   -4.97  -11.55   -6.05
    1.27  -14.44    2.11
   -9.53  -10.92   -7.07
   -0.46  -10.56    8.05
    5.10  -10.96    4.57
    2.87  -12.44   -5.63
    9.00   -8.75    6.81
    3.02  -12.16   -9.50
    5.62  -12.45   -8.43
   -7.90  -11.17    9.50
    1.76  -11.28    6.67
    7.25  -11.40    2.77
    0.42  -11.30    4.98
    5.99  -10.55   -1.63
    0.62  -11.58   -4.42
   -2.83  -12.22    3.45
   -7.01  -12.69   -0.55
   -5.81  -12.06   -2.74
   -4.48  -12.37   -0.58
   -4.51  -11.48    1.17
    2.76  -11.28    6.88
    8.60  -11.68    4.42
    7.90  -12.16    2.72
    4.87  -12.04    0.47
   -0.66  -14.48    0.01
    7.15  -11.82    4.12
    3.82  -13.74    0.68
    3.42  -13.09   -6.17
  -10.13  -10.37    7.59
    6.48  -12.97   -7.49
    0.36  -13.72   -3.65
    4.26  -10.47    4.35
    7.62   -9.59    4.77
   -2.23  -14.33   -6.06
    4.61   -9.78    5.00
   -1.25  -10.86   -8.32
    5.82  -11.68    3.55
    4.98  -10.10   -4.36
    6.55   -9.27    7.20
    5.78  -10.47    6.35
    4.64  -12.91    0.03
    1.35  -11.04   -8.41
    6.38  -13.02   -8.74
    4.70  -12.17   -7.13
   -4.51  -13.78   -0.06
    0.90  -10.81   -5.00
   -0.65  -11.90    1.20
    8.43   -9.01    7.77
    0.21  -14.50    0.50
    2.49  -11.71   -7.47
   -5.32  -12.57   -2.03
   -4.17  -12.96    5.84
    8.57  -11.70    5.77
    0.35  -11.56   -0.29
    1.87  -11.98    3.58
   -2.48  -12.54    4.52
    8.89  -11.46   -0.41
   -6.68  -11.81   -1.91
   -3.25  -14.13    4.23
    9.56   -9.93   -4.42
    1.39  -11.04    3.16
    4.02  -10.37    5.55
   -2.26  -12.12    2.60
    1.76  -11.38   -6.88
   -4.20  -13.09    8.48
    2.82  -12.55   -3.53
   -2.10  -14.35    7.03
    4.98  -12.17    3.80
   -6.94  -11.60    7.27
    4.92  -11.78   -1.79
   10.82   -9.65   -3.97
    2.82  -10.81   -6.32
    9.35  -11.08    4.12
    5.52  -10.79   -7.02
   -4.20  -13.88   -1.91
   -3.06  -12.53   -2.92
    9.41  -11.03    7.25
   -3.77  -14.00    9.45
    8.07   -9.08    6.68
   -6.50  -12.96    7.57
    6.33  -11.12    7.04
    2.49  -11.08    2.37
   -6.69  -12.06    0.68
   -1.63  -11.11   -4.62
    7.71  -10.16   -7.17
    0.96  -14.47    1.16
   10.02   -9.53   -9.05
    6.14  -10.02   -7.17
    2.26  -13.69   -4.23
    5.37  -11.37    2.72
    1.09  -11.72    1.06
    3.48  -10.35    1.07
   -7.58  -12.36   -9.23
   -3.86  -12.17    8.28
    2.50  -14.28   -6.80
    3.95  -13.95   -5.38
   -2.08  -11.75    9.50
    6.49  -12.97    6.05
    4.72  -12.76   -3.73
    0.64  -14.49    2.89
    1.59  -13.17   -2.63
   -4.93  -12.84    6.47
   -2.30  -12.62    6.18
    1.04  -13.77    8.48
    0.43  -13.49    6.27
   -2.02  -11.92   -4.18
    3.13  -13.51   -7.84
    1.44  -12.74   -8.85
    7.98  -11.15    6.49
   -5.13  -12.26    1.14
    0.50  -12.01    4.29
    4.16  -11.16   -2.02
   -0.96  -12.76   -5.07
   -4.62  -13.74    2.91
   -2.73  -13.48    4.77
   -2.46  -11.13    5.45
   -5.07  -13.59    8.54
    9.23   -9.31    3.84
    2.35  -12.09   -4.76
    0.02  -10.49    6.86
    5.78  -11.48   -8.56
    8.69  -10.82    0.95
   -1.70  -10.70   -9.39
    7.55  -10.29    1.72
    0.17  -13.95   -0.33
    7.65  -11.21   -8.78
    4.63  -11.26   -0.23
   -3.80  -12.01   -6.36
    9.36  -11.06   -1.20
   -7.13  -11.74   -8.53
    3.36  -10.36    9.29
   -4.21  -11.84   -5.47
   -0.64  -11.80    3.33
    6.22  -10.76   -0.68
    0.63  -12.26    8.79
   -8.28  -10.99    7.98
    2.37  -11.30   -1.32
    2.89  -12.87    2.50
    2.33  -14.31   -5.77
    5.75  -10.55    1.12
    9.29  -10.13   -1.56
    1.92  -12.08   -9.50
    5.98  -11.22    9.50
    9.81  -10.65   -5.08
   -1.49  -12.65    0.10
    1.18  -14.45   -6.76
   -4.36  -13.83    7.82
   -1.49  -14.42   -1.86
    4.51  -12.70   -1.85
   -1.51  -13.82    7.97
   10.21   -9.37    9.40
    2.66  -14.05   -9.50
    1.31  -12.15   -5.17
    5.68  -11.64    7.60
   -4.20  -12.64   -7.70
    2.01  -13.62   -7.37
   -1.92  -13.53   -0.12
   10.59   -9.90   -2.99
    4.55  -10.77    6.30
    1.56  -10.53    7.31
    8.71  -11.59   -4.01
    4.76  -12.05   -0.83
   -2.72  -14.18    2.59
   -5.04  -12.64   -3.00
    4.23  -10.51   -5.31
    1.59  -12.64    8.66
    6.84  -10.33   -5.52
    5.84  -10.78   -9.28
   -3.71  -10.97    8.18
   -1.44  -12.58   -9.50
    6.78   -9.23    5.22
   -1.29  -13.48   -2.11
   -5.90  -11.56   -5.30
    8.99   -9.30    1.64
    6.34   -9.76    0.96
   -0.89  -12.80    4.78
   -8.22  -11.95   -6.15
   -4.69  -13.72   -1.04
    0.46  -11.04    6.16
    9.48  -10.18    7.77
   -5.74  -12.66   -7.30
    0.80  -11.85   -1.20
    9.26  -10.38    8.75
   -2.52  -10.75    9.50
   -8.55  -11.71   -4.84
    9.66  -10.82   -3.31
   -4.43  -12.10    9.10
   -0.50  -10.70   -9.40
   -2.16  -14.34   -5.04
    4.07  -11.94    5.21
    1.82  -13.70   -6.37
   -0.70  -11.23    6.28
   -1.10  -13.81   -7.15
   -5.14  -13.56   -1.97
   -6.55  -12.11    2.82
    7.19  -10.05    0.51
    2.07  -13.64    4.77
   -2.30  -13.00   -7.59
    4.32  -11.60    4.31
   -5.07  -11.08    7.27
    0.45  -13.05   -9.40
    7.36   -9.82   -9.39
    4.65  -11.31    3.41
   -2.44  -13.02    2.20
    2.87  -10.50   -8.28
    8.48  -10.86   -1.96
   -8.33  -11.87    8.92
    2.29  -11.76    8.90
    2.52  -12.12    1.29
   -2.12  -14.34   -9.50
   -1.99  -12.27   -8.21
    4.17  -13.89    7.14
   11.88   -8.32    5.96
    5.06  -12.16    5.78
   -2.34  -13.11   -9.35
    6.46  -12.98    4.49
    1.55  -13.02   -5.62
    3.54  -12.92   -1.79
   11.07   -9.37   -6.89
   -5.23  -11.97   -7.82
   -7.92  -12.15    2.89
   -3.95  -12.15    5.30
   -4.93  -13.59   -5.85
    5.56  -13.37   -6.12
    7.98  -12.11    5.08
   -5.57  -11.27    1.72
    2.43  -12.63   -8.84
   -3.80  -11.91   -8.85
    4.25  -12.91   -0.90
    1.20  -12.19    2.87
    9.86  -10.63   -7.86
    9.02   -9.24   -8.34
   -3.20  -10.74   -6.44
    3.58  -12.25    7.94
    7.80  -11.27    3.59
    6.11   -9.75    7.96
    5.52  -11.75   -6.75
   -4.29  -12.86    0.27
   -3.25  -12.91    6.23
   10.24  -10.26    8.61
    4.80  -12.70   -6.27
   -1.39  -11.03    9.50
   -5.60  -12.76    2.19
    2.88  -11.04    0.51
    3.22  -11.98    0.59
    8.51  -10.06    7.94
    5.16  -11.67   -4.08
    5.97  -10.12    5.43
   -1.23  -13.59    5.29
   -9.34  -11.09    7.70
    1.21  -12.47   -1.88
    5.78  -11.52   -4.85
    7.34   -9.76    6.82
    2.54  -13.69   -0.52
    4.70  -13.72   -7.99
    6.79  -10.33    7.46
    3.39  -14.10    6.55
    2.50  -14.28   -7.94
    2.18  -12.91    1.80
    6.54  -12.94    7.49
    6.33  -11.06    2.96
    4.68  -10.96   -1.18
   11.05   -8.49    2.15
    3.32  -11.97    8.86
    6.82  -10.18    4.90
    6.50  -12.96   -6.49
    2.08  -12.89   -1.65
   -7.33  -11.82    9.00
    3.45  -11.99   -7.48
    7.94  -10.53    4.87
    7.13  -10.67   -0.27
   -8.39  -11.82   -0.01
    0.22  -11.68   -7.68
    6.16  -10.48   -3.69
    3.30  -11.28   -9.11
    9.22   -9.92   -3.37
   -6.28  -13.07    2.86
   -4.27  -11.63   -7.70
    0.76  -12.34   -8.19
    2.65  -11.21   -4.06
    2.96  -13.17    1.23
    2.71  -13.02   -4.82
   -4.96  -11.34   -4.44
   11.26   -9.13   -1.63
    4.04  -12.38    3.52
    7.97   -9.35    5.67
   -1.53  -12.92   -6.97
   -3.47  -13.17    4.05
    2.52  -11.42   -2.31
   -0.33  -13.66    0.54
   -2.58  -14.27   -0.26
    3.85  -12.00   -1.58
    8.29  -10.64    8.75
   -2.70  -13.35    0.48
   -6.82  -10.66    6.97
   -1.70  -14.40    4.08
   -3.32  -12.62    0.18
    8.03  -10.98   -0.58
    4.17  -11.78   -3.98
   10.19   -9.02   -7.23
    9.71  -10.03    6.05
   -0.17  -12.15    5.02
    4.04  -11.14   -7.69
    0.98  -12.05   -7.07
   -0.88  -10.78    7.16
   -1.07  -11.75    0.31
    3.42  -13.09   -4.12
   -0.12  -14.50    7.43
   -4.67  -13.73   -4.90
    0.93  -12.18   -9.50
   -3.91  -13.19   -0.60
   -5.55  -12.32    4.14
    1.67  -12.00   -6.09
    3.75  -10.93    3.62
    6.57  -10.29   -2.80
    7.71  -11.39    9.07
   -5.39  -11.38    5.08
   -7.66  -12.31   -7.02
    1.52  -10.56    9.50
    6.31  -12.17    9.50
    6.55  -11.10   -4.37
    3.49  -14.07    9.50
   11.84   -8.37    9.49
   -1.38  -11.30    2.88
   -6.21  -13.10    9.32
    7.17  -11.73   -7.75
   -0.97  -11.76   -5.00
   -2.60  -10.97    7.97
    4.82  -13.16   -7.16
   -6.87  -11.71   -9.50
    7.04  -11.77   -3.82
    2.82  -13.33    9.50
   -3.53  -12.08   -1.50
   -4.21  -13.82    4.32
    8.09  -10.04    4.01
    1.70  -11.14   -3.75
    4.30  -12.30   -4.82
   -1.93  -13.85   -7.97
    8.20  -10.30   -9.12
    1.34  -11.57   -0.40
    6.71  -11.02   -2.14
    8.89  -10.39    6.68
   -2.16  -12.20   -2.64
   -4.08  -11.20   -9.50
    5.59  -11.36   -1.18
    7.51  -12.40    0.27
    3.32  -11.65   -3.45
   -0.30  -10.89   -8.01
    7.72  -12.27    8.61
    9.49  -10.97    5.80
    3.82  -11.19   -4.70
   12.02   -8.11    5.00
    0.03  -11.81    6.63
    9.00  -10.27    3.65
[...]
POINT_DATA 2000
SCALARS radius float
LOOKUP_TABLE default
  0.500000000000000     
  0.500000000000000     
  0.500000000000000     
  0.500000000000000     
  0.500000000000000     
  0.500000000000000     
  0.500000000000000     
  0.500000000000000     
  0.500000000000000     
  0.500000000000000     
  0.500000000000000     
  0.500000000000000     
  0.500000000000000     
  0.500000000000000     
  0.500000000000000     
  0.500000000000000     
  0.500000000000000     
  0.500000000000000     
  0.500000000000000     
  0.500000000000000     
  0.500000000000000     
  0.500000000000000     
  0.500000000000000     
  0.500000000000000     
  0.500000000000000     
  0.500000000000000     
  0.500000000000000     
  0.500000000000000     
  0.500000000000000     
  0.500000000000000     
  0.500000000000000     
  0.500000000000000     
  0.500000000000000     
  0.500000000000000     
  0.500000000000000     
  0.500000000000000     
  0.500000000000000     
  0.500000000000000     
  0.500000000000000     
  0.500000000000000     
  0.500000000000000     
  0.500000000000000     
  0.500000000000000     
  0.500000000000000     
  0.500000000000000     
  0.500000000000000     
  0.500000000000000     
  0.500000000000000     
  0.500000000000000     
  0.500000000000000     
  0.500000000000000     
  0.500000000000000     
  0.500000000000000     
  0.500000000000000     
  0.500000000000000     
  0.500000000000000     
  0.500000000000000     
  0.500000000000000     
  0.500000000000000     
  0.500000000000000     
  0.500000000000000     
  0.500000000000000     
  0.500000000000000     
  0.500000000000000     
  0.500000000000000     
  0.500000000000000     
  0.500000000000000     
  0.500000000000000     
  0.500000000000000     
  0.500000000000000     
  0.500000000000000     
  0.500000000000000     
  0.500000000000000     
  0.500000000000000     
  0.500000000000000     
  0.500000000000000     
  0.500000000000000     
  0.500000000000000     
  0.500000000000000     
  0.500000000000000     
  0.500000000000000     
  0.500000000000000     
  0.500000000000000     
  0.500000000000000     
  0.500000000000000     
  0.500000000000000     
  0.500000000000000     
  0.500000000000000     
  0.500000000000000     
  0.500000000000000     
  0.500000000000000     
  0.500000000000000     
  0.500000000000000     
  0.500000000000000     
  0.500000000000000     
  0.500000000000000     
  0.500000000000000     
  0.500000000000000     
  0.500000000000000     
  0.500000000000000     
  0.500000000000000     
  0.500000000000000     
  0.500000000000000     
  0.500000000000000     
  0.500000000000000     
  0.500000000000000     
  0.500000000000000     
  0.500000000000000     
  0.500000000000000     
  0.500000000000000     
  0.500000000000000     
  0.500000000000000     
  0.500000000000000     
  0.500000000000000     
  0.500000000000000     
  0.500000000000000     
  0.500000000000000     
  0.500000000000000     
  0.500000000000000     
  0.500000000000000     
  0.500000000000000     
  0.500000000000000     
  0.500000000000000     
  0.500000000000000     
  0.500000000000000     
  0.500000000000000     
  0.500000000000000     
  0.500000000000000     
  0.500000000000000     
  0.500000000000000     
  0.500000000000000     
  0.500000000000000     
  0.500000000000000     
  0.500000000000000     
  0.500000000000000     
  0.500000000000000     
  0.500000000000000     
  0.500000000000000     
  0.500000000000000     
  0.500000000000000     
  0.500000000000000     
  0.500000000000000     
  0.500000000000000     
  0.500000000000000     
  0.500000000000000     
  0.500000000000000     
  0.500000000000000     
  0.500000000000000     
  0.500000000000000     
  0.500000000000000     
  0.500000000000000     
  0.500000000000000     
  0.500000000000000     
  0.500000000000000     
  0.500000000000000     
  0.500000000000000     
  0.500000000000000     
  0.500000000000000     
  0.500000000000000     
  0.500000000000000     
  0.500000000000000     
  0.500000000000000     
  0.500000000000000     
  0.500000000000000     
  0.500000000000000     
  0.500000000000000     
  0.500000000000000     
  0.500000000000000     
  0.500000000000000     
  0.500000000000000     
  0.500000000000000     
  0.500000000000000     
  0.500000000000000     
  0.500000000000000     
  0.500000000000000     
  0.500000000000000     
  0.500000000000000     
  0.500000000000000     
  0.500000000000000     
  0.500000000000000     
  0.500000000000000     
  0.500000000000000     
  0.500000000000000     
  0.500000000000000     
  0.500000000000000     
  0.500000000000000     
  0.500000000000000     
  0.500000000000000     
  0.500000000000000     
  0.500000000000000     
  0.500000000000000     
  0.500000000000000     
  0.500000000000000     
  0.500000000000000     
  0.500000000000000     
  0.500000000000000     
  0.500000000000000     
  0.500000000000000     
  0.500000000000000     
  0.500000000000000     
  0.500000000000000     
  0.500000000000000     
  0.500000000000000     
  0.500000000000000     
  0.500000000000000     
  0.500000000000000     
  0.500000000000000     
  0.500000000000000     
  0.500000000000000     
  0.500000000000000     
  0.500000000000000     
  0.500000000000000     
  0.500000000000000     
  0.500000000000000     
  0.500000000000000     
  0.500000000000000     
  0.500000000000000     
  0.500000000000000     
  0.500000000000000     
  0.500000000000000     
  0.500000000000000     
  0.500000000000000     
  0.500000000000000     
  0.500000000000000     
  0.500000000000000     
  0.500000000000000     
  0.500000000000000     
  0.500000000000000     
  0.500000000000000     
  0.500000000000000     
  0.500000000000000     
  0.500000000000000     
  0.500000000000000     
  0.500000000000000     
  0.500000000000000     
  0.500000000000000     
  0.500000000000000     
  0.500000000000000     
  0.500000000000000     
  0.500000000000000     
  0.500000000000000     
  0.500000000000000     
  0.500000000000000     
  0.500000000000000     
  0.500000000000000     
  0.500000000000000     
  0.500000000000000     
  0.500000000000000     
  0.500000000000000     
  0.500000000000000     
  0.500000000000000     
  0.500000000000000     
  0.500000000000000     
  0.500000000000000     
  0.500000000000000     
  0.500000000000000     
  0.500000000000000     
  0.500000000000000     
  0.500000000000000     
  0.500000000000000     
  0.500000000000000     
  0.500000000000000     
  0.500000000000000     
  0.500000000000000     
  0.500000000000000     
  0.500000000000000     
  0.500000000000000     
  0.500000000000000     
  0.500000000000000     
  0.500000000000000     
  0.500000000000000     
  0.500000000000000     
  0.500000000000000     
  0.500000000000000     
  0.500000000000000     
  0.500000000000000     
  0.500000000000000     
  0.500000000000000     
  0.500000000000000     
  0.500000000000000     
  0.500000000000000     
  0.500000000000000     
  0.500000000000000     
  0.500000000000000     
  0.500000000000000     
  0.500000000000000     
  0.500000000000000     
  0.500000000000000     
  0.500000000000000     
  0.500000000000000     
  0.500000000000000     
  0.500000000000000     
  0.500000000000000     
  0.500000000000000     
  0.500000000000000     
  0.500000000000000     
  0.500000000000000     
  0.500000000000000     
  0.500000000000000     
  0.500000000000000     
  0.500000000000000     
  0.500000000000000     
  0.500000000000000     
  0.500000000000000     
  0.500000000000000     
  0.500000000000000     
  0.500000000000000     
  0.500000000000000     
  0.500000000000000     
  0.500000000000000     
  0.500000000000000     
  0.500000000000000     
  0.500000000000000     
  0.500000000000000     
  0.500000000000000     
  0.500000000000000     
  0.500000000000000     
  0.500000000000000     
  0.500000000000000     
  0.500000000000000     
  0.500000000000000     
  0.500000000000000     
  0.500000000000000     
  0.500000000000000     
  0.500000000000000     
  0.500000000000000     
  0.500000000000000     
  0.500000000000000     
  0.500000000000000     
  0.500000000000000     
  0.500000000000000     
  0.500000000000000     
  0.500000000000000     
  0.500000000000000     
  0.500000000000000     
  0.500000000000000     
  0.500000000000000     
  0.500000000000000     
  0.500000000000000     
  0.500000000000000     
  0.500000000000000     
  0.500000000000000     
  0.500000000000000     
  0.500000000000000     
  0.500000000000000     
  0.500000000000000     
  0.500000000000000     
  0.500000000000000     
  0.500000000000000     
  0.500000000000000     
  0.500000000000000     
  0.500000000000000     
  0.500000000000000     
  0.500000000000000     
  0.500000000000000     
  0.500000000000000     
  0.500000000000000     
  0.500000000000000     
  0.500000000000000     
  0.500000000000000     
  0.500000000000000     
  0.500000000000000     
  0.500000000000000     
  0.500000000000000     
  0.500000000000000     
  0.500000000000000     
  0.500000000000000     
  0.500000000000000     
  0.500000000000000     
  0.500000000000000     
  0.500000000000000     
  0.500000000000000     
  0.500000000000000     
  0.500000000000000     
  0.500000000000000     
  0.500000000000000     
  0.500000000000000     
  0.500000000000000     
  0.500000000000000     
  0.500000000000000     
  0.500000000000000     
  0.500000000000000     
  0.500000000000000     
  0.500000000000000     
  0.500000000000000     
  0.500000000000000     
  0.500000000000000     
  0.500000000000000     
  0.500000000000000     
  0.500000000000000     
  0.500000000000000     
  0.500000000000000     
  0.500000000000000     
  0.500000000000000     
  0.500000000000000     
  0.500000000000000     
  0.500000000000000     
  0.500000000000000     
  0.500000000000000     
  0.500000000000000     
  0.500000000000000     
  0.500000000000000     
  0.500000000000000     
  0.500000000000000     
  0.500000000000000     
  0.500000000000000     
  0.500000000000000     
  0.500000000000000     
  0.500000000000000     
  0.500000000000000     
  0.500000000000000     
  0.500000000000000     
  0.500000000000000     
  0.500000000000000     
  0.500000000000000     
  0.500000000000000     
  0.500000000000000     
  0.500000000000000     
  0.500000000000000     
  0.500000000000000     
  0.500000000000000     
  0.500000000000000     
  0.500000000000000     
  0.500000000000000     
  0.500000000000000     
  0.500000000000000     
  0.500000000000000     
  0.500000000000000     
  0.500000000000000     
  0.500000000000000     
  0.500000000000000     
  0.500000000000000     
  0.500000000000000     
  0.500000000000000     
  0.500000000000000     
  0.500000000000000     
  0.500000000000000     
  0.500000000000000     
  0.500000000000000     
  0.500000000000000     
  0.500000000000000     
  0.500000000000000     
  0.500000000000000     
  0.500000000000000     
  0.500000000000000     
  0.500000000000000     
  0.500000000000000     
  0.500000000000000     
  0.500000000000000     
  0.500000000000000     
  0.500000000000000     
  0.500000000000000     
  0.500000000000000     
  0.500000000000000     
  0.500000000000000     
  0.500000000000000     
  0.500000000000000     
  0.500000000000000     
  0.500000000000000     
  0.500000000000000     
  0.500000000000000     
  0.500000000000000     
  0.500000000000000     
  0.500000000000000     
  0.500000000000000     
  0.500000000000000     
  0.500000000000000     
  0.500000000000000     
  0.500000000000000     
  0.500000000000000     
  0.500000000000000     
  0.500000000000000     
  0.500000000000000     
  0.500000000000000     
  0.500000000000000     
  0.500000000000000     
  0.500000000000000     
  0.500000000000000     
  0.500000000000000     
  0.500000000000000     
  0.500000000000000     
  0.500000000000000     
  0.500000000000000     
  0.500000000000000     
  0.500000000000000     
  0.500000000000000     
  0.500000000000000     
  0.500000000000000     
  0.500000000000000     
  0.500000000000000     
  0.500000000000000     
  0.500000000000000     
  0.500000000000000     
  0.500000000000000     
  0.500000000000000     
  0.500000000000000     
  0.500000000000000     
  0.500000000000000     
  0.500000000000000     
  0.500000000000000     
  0.500000000000000     
  0.500000000000000     
  0.500000000000000     
  0.500000000000000     
  0.500000000000000     
  0.500000000000000     
  0.500000000000000     
  0.500000000000000     
  0.500000000000000     
  0.500000000000000     
  0.500000000000000     
  0.500000000000000     
  0.500000000000000     
  0.500000000000000     
  0.500000000000000     
  0.500000000000000     
  0.500000000000000     
  0.500000000000000     
  0.500000000000000     
  0.500000000000000     
  0.500000000000000     
  0.500000000000000     
  0.500000000000000     
  0.500000000000000     
  0.500000000000000     
  0.500000000000000     
  0.500000000000000     
  0.500000000000000     
  0.500000000000000     
  0.500000000000000     
  0.500000000000000     
  0.500000000000000     
  0.500000000000000     
  0.500000000000000     
  0.500000000000000     
  0.500000000000000     
  0.500000000000000     
  0.500000000000000     
  0.500000000000000     
  0.500000000000000     
  0.500000000000000     
  0.500000000000000     
  0.500000000000000     
  0.500000000000000     
  0.500000000000000     
  0.500000000000000     
  0.500000000000000     
  0.500000000000000     
  0.500000000000000     
  0.500000000000000     
  0.500000000000000     
  0.500000000000000     
  0.500000000000000     
  0.500000000000000     
  0.500000000000000     
  0.500000000000000     
  0.500000000000000     
  0.500000000000000     
  0.500000000000000     
  0.500000000000000     
  0.500000000000000     
  0.500000000000000     
  0.500000000000000     
  0.500000000000000     
  0.500000000000000     
  0.500000000000000     
  0.500000000000000     
  0.500000000000000     
  0.500000000000000     
  0.500000000000000     
  0.500000000000000     
  0.500000000000000     
  0.500000000000000     
  0.500000000000000     
  0.500000000000000     
  0.500000000000000     
  0.500000000000000     
  0.500000000000000     
  0.500000000000000     
  0.500000000000000     
  0.500000000000000     
  0.500000000000000     
  0.500000000000000     
  0.500000000000000     
  0.500000000000000     
  0.500000000000000     
  0.500000000000000     
  0.500000000000000     
  0.500000000000000     
  0.500000000000000     
  0.500000000000000     
  0.500000000000000     
  0.500000000000000     
  0.500000000000000     
  0.500000000000000     
  0.500000000000000     
  0.500000000000000     
  0.500000000000000     
  0.500000000000000     
  0.500000000000000     
  0.500000000000000     
  0.500000000000000     
  0.500000000000000     
  0.500000000000000     
  0.500000000000000     
  0.500000000000000     
  0.500000000000000     
  0.500000000000000     
  0.500000000000000     
  0.500000000000000     
  0.500000000000000     
  0.500000000000000     
  0.500000000000000     
  0.500000000000000     
  0.500000000000000     
  0.500000000000000     
  0.500000000000000     
  0.500000000000000     
  0.500000000000000     
  0.500000000000000     
  0.500000000000000     
  0.500000000000000     
  0.500000000000000     
  0.500000000000000     
  0.500000000000000     
  0.500000000000000     
  0.500000000000000     
  0.500000000000000     
  0.500000000000000     
  0.500000000000000     
  0.500000000000000     
  0.500000000000000     
  0.500000000000000     
  0.500000000000000     
  0.500000000000000     
  0.500000000000000     
  0.500000000000000     
  0.500000000000000     
  0.500000000000000     
  0.500000000000000     
  0.500000000000000     
  0.500000000000000     
  0.500000000000000     
  0.500000000000000     
  0.500000000000000     
  0.500000000000000     
  0.500000000000000     
  0.500000000000000     
  0.500000000000000     
  0.500000000000000     
  0.500000000000000     
  0.500000000000000     
  0.500000000000000     
  0.500000000000000     
  0.500000000000000     
  0.500000000000000     
  0.500000000000000     
  0.500000000000000     
  0.500000000000000     
  0.500000000000000     
  0.500000000000000     
  0.500000000000000     
  0.500000000000000     
  0.500000000000000     
  0.500000000000000     
  0.500000000000000     
  0.500000000000000     
  0.500000000000000     
  0.500000000000000     
  0.500000000000000     
  0.500000000000000     
  0.500000000000000     
  0.500000000000000     
  0.500000000000000     
  0.500000000000000     
  0.500000000000000     
  0.500000000000000     
  0.500000000000000     
  0.500000000000000     
  0.500000000000000     
  0.500000000000000     
  0.500000000000000     
  0.500000000000000     
  0.500000000000000     
  0.500000000000000     
  0.500000000000000     
  0.500000000000000     
  0.500000000000000     
  0.500000000000000     
  0.500000000000000     
  0.500000000000000     
  0.500000000000000     
  0.500000000000000     
  0.500000000000000     
  0.500000000000000     
  0.500000000000000     
  0.500000000000000     
  0.500000000000000     
  0.500000000000000     
  0.500000000000000     
  0.500000000000000     
  0.500000000000000     
  0.500000000000000     
  0.500000000000000     
  0.500000000000000     
  0.500000000000000     
  0.500000000000000     
  0.500000000000000     
  0.500000000000000     
  0.500000000000000     
  0.500000000000000     
  0.500000000000000     
  0.500000000000000     
  0.500000000000000     
  0.500000000000000     
  0.500000000000000     
  0.500000000000000     
  0.500000000000000     
  0.500000000000000     
  0.500000000000000     
  0.500000000000000     
  0.500000000000000     
  0.500000000000000     
  0.500000000000000     
  0.500000000000000     
  0.500000000000000     
  0.500000000000000     
  0.500000000000000     
  0.500000000000000     
  0.500000000000000     
  0.500000000000000     
  0.500000000000000     
  0.500000000000000     
  0.500000000000000     
  0.500000000000000     
  0.500000000000000     
  0.500000000000000     
  0.500000000000000     
  0.500000000000000     
  0.500000000000000     
  0.500000000000000     
  0.500000000000000     
  0.500000000000000     
  0.500000000000000     
  0.500000000000000     
  0.500000000000000     
  0.500000000000000     
  0.500000000000000     
  0.500000000000000     
  0.500000000000000     
  0.500000000000000     
  0.500000000000000     
  0.500000000000000     
  0.500000000000000     
  0.500000000000000     
  0.500000000000000     
  0.500000000000000     
  0.500000000000000     
  0.500000000000000     
  0.500000000000000     
  0.500000000000000     
  0.500000000000000     
  0.500000000000000     
  0.500000000000000     
  0.500000000000000     
  0.500000000000000     
  0.500000000000000     
  0.500000000000000     
  0.500000000000000     
  0.500000000000000     
  0.500000000000000     
  0.500000000000000     
  0.500000000000000     
  0.500000000000000     
  0.500000000000000     
  0.500000000000000     
  0.500000000000000     
  0.500000000000000     
  0.500000000000000     
  0.500000000000000     
  0.500000000000000     
  0.500000000000000     
  0.500000000000000     
  0.500000000000000     
  0.500000000000000     
  0.500000000000000     
  0.500000000000000     
  0.500000000000000     
  0.500000000000000     
  0.500000000000000     
  0.500000000000000     
  0.500000000000000     
  0.500000000000000     
  0.500000000000000     
  0.500000000000000     
  0.500000000000000     
  0.500000000000000     