# vtk DataFile Version 5.1
Data.vtk
ASCII
DATASET UNSTRUCTURED_GRID
 
POINTS 2000 float
   -6.05  -11.09   -0.45
   -9.01  -10.71    2.01
    4.31  -12.09    0.32
    4.06  -12.95   -1.56
  -10.03   -9.25    8.56
   -2.80  -10.19   -6.63
   -3.99   -9.57   -3.59
   -0.88  -11.67   -8.67
   -2.67  -13.30   -8.55
   -2.47  -11.78   -0.93
  -10.08  -10.43   -6.61
   -8.20  -10.90   -7.12
   -5.47   -8.97   -1.79
   -1.45  -12.99    4.58
    0.30  -14.49   -0.99
   -7.27   -9.14    3.40
   -7.31  -12.00    7.10
   -0.21  -11.57    4.89
    3.84  -11.68    6.85
   -3.93  -13.96   -9.45
    5.12  -13.43   -1.43
    3.54  -12.01   -1.46
   -4.71  -10.62   -9.11
   -4.62  -13.74   -8.31
   -4.46  -11.31   -1.76
   -4.37  -13.83    1.37
   -3.46  -13.29    7.26
    2.01  -12.11    8.90
   -8.67  -11.62   -6.61
  -12.48   -6.97    9.48
    0.16  -12.78   -7.17
   -8.86   -9.70    1.46
    1.01  -10.78    4.26
   -4.78  -12.39   -2.95
    2.44  -14.29   -7.59
    5.49  -12.64    7.90
  -13.00   -5.94    8.27
    1.21  -14.45    7.19
   -4.91  -13.64    2.59
   -3.71  -13.26    3.99
   -5.30  -10.12   -1.21
    5.46  -12.51   -3.41
   -3.37  -12.28   -5.48
   -2.08  -11.69    0.63
   -9.58   -9.65   -8.03
   -5.38   -9.91    3.11
    3.41  -12.44    4.07
    0.90  -13.56   -6.24
   -5.84  -13.27    0.42
    0.77  -14.43   -7.48
    4.92  -12.26   -6.40
    1.59  -13.06    8.78
   -4.48   -8.76    7.69
   -2.22  -13.78    2.44
  -11.75   -7.45    5.93
   -2.31  -13.61   -2.39
   -9.73   -7.03   -5.56
    0.53  -13.62    4.49
    0.93  -14.47    1.00
   -4.12   -9.63   -7.97
   -5.92  -13.24   -2.52
   -6.48   -8.35   -9.24
   -1.81  -11.14    5.91
    5.95  -12.24   -2.17
   -6.45  -10.09    0.62
    1.07  -14.46    4.60
    2.89  -14.21   -9.50
  -12.53   -7.29    4.28
    1.08  -11.61   -8.81
   -7.04  -10.87   -2.10
   -6.97  -12.72    8.58
  -10.02   -9.96   -9.50
   -0.08  -10.84   -6.07
  -10.55   -8.51    4.94
   -0.28  -10.55    5.48
  -12.31   -7.15   -9.49
   -9.78   -8.18    3.13
    3.40  -12.13   -6.52
   -3.73  -13.27    1.91
  -11.32   -7.95    0.88
    1.16  -11.69    8.37
   -4.91   -9.41    0.77
   -2.40  -11.35   -3.82
   -1.75   -9.99   -8.57
    0.69  -14.48   -8.47
   -3.65  -10.82   -8.17
   -0.51  -14.17    5.30
   -6.78   -8.14   -3.46
   -7.73  -12.26    3.09
   -5.34  -11.80    6.74
  -10.80   -9.13    0.05
   -4.87  -13.66   -9.28
  -13.69   -4.79   -4.75
  -12.77   -5.26    9.14
    3.60  -12.22    7.78
   -6.70  -10.81   -3.04
    5.05  -13.59    7.67
   -4.11  -13.90    5.56
    1.01  -11.55   -5.91
   -0.32  -14.50   -3.50
    3.81  -12.85    2.46
  -11.84   -6.20   -7.32
   -9.38  -11.06    3.38
  -12.85   -5.89    6.22
    2.77  -14.23    3.01
   -5.83   -9.13   -5.04
    6.66  -12.80    2.60
  -13.33   -4.89   -7.29
    3.23  -13.40    8.79
    3.71  -13.18    3.40
  -13.12   -6.17    9.42
    2.77  -13.47   -2.84
   -5.21   -9.19   -0.82
   -6.58   -9.70   -5.55
   -1.14  -10.83    2.31
   -9.65   -7.89   -7.07
    1.33  -14.44   -0.48
   -7.32  -11.17   -6.72
    1.79  -13.72    9.50
   -6.00   -9.69    4.94
    1.84  -11.36    4.13
   -4.98   -9.59    7.95
   -9.72   -9.43    9.50
  -10.89   -8.49    3.86
  -10.76   -7.95   -1.52
  -11.90   -7.46   -3.12
    4.14  -12.39   -7.15
   -2.50  -14.28    9.50
   -0.01  -12.06   -8.36
    2.28  -12.87   -9.00
   -1.53  -12.69   -4.29
   -0.48  -13.66    7.03
  -11.62   -8.49   -2.05
  -11.42   -8.93   -0.71
   -4.58  -12.66   -8.50
    1.11  -12.34    9.50
   -2.29  -14.32   -8.45
    1.95  -11.99   -5.39
   -0.23  -11.37    7.44
    0.18  -11.46    0.69
  -12.22   -7.30   -0.75
    5.97  -13.21   -0.64
   -5.55  -12.32   -8.32
   -7.83   -8.96    5.23
   -3.38  -13.36    5.98
    1.27  -14.44    8.32
   -0.07  -13.63    7.94
   -0.49  -12.06   -7.43
    0.96  -12.24   -8.04
   -5.36   -9.00   -7.90
   -8.24   -9.90    5.65
   -7.82  -12.21   -0.54
    2.15  -14.34    7.51
  -10.87   -9.25   -8.50
   -3.41  -14.09   -8.49
    2.39  -12.68    2.12
   -0.69  -12.80    0.66
    0.06  -10.49    4.20
   -8.89  -10.08    9.50
    0.95  -11.39    2.63
  -13.58   -4.41   -8.13
   -5.75   -9.82    7.35
    2.60  -11.98   -7.10
   -3.65  -10.76    2.43
  -10.79   -8.06   -5.91
   -5.29  -13.48    1.49
    0.44  -14.49   -2.24
   -2.99  -13.63   -9.50
  -11.30   -7.11   -1.59
   -5.25  -11.37   -8.48
   -1.43  -11.16    1.17
   -0.63  -12.61   -6.58
   -3.81  -10.21    6.71
   -9.39   -9.86   -7.06
    4.30  -12.93    7.83
  -12.02   -6.95    2.46
   -2.79  -11.66    9.49
   -8.64   -8.34    6.92
   -8.62  -11.66   -7.64
   -0.88  -11.82   -0.77
   -7.80  -12.09   -6.48
   -7.03   -9.20    2.24
   -0.85   -9.93    2.65
   -4.65  -10.74   -6.69
   -7.62   -9.15    8.94
    0.42  -10.03   -1.48
    4.55  -13.77   -4.58
    1.96  -12.27   -6.35
   -6.89  -12.75    5.82
    5.01  -12.76   -5.32
    0.42  -13.69   -1.58
    1.04  -11.40    5.05
   -6.53  -12.95    9.50
   -5.71   -9.96   -9.50
   -6.18   -9.41   -3.95
    2.69  -11.44    5.60
   -9.13   -8.67   -6.50
    5.71  -12.08   -5.68
    3.26  -13.25   -5.51
   -4.00  -12.94    0.10
   -4.64  -12.01    5.73
    1.82  -11.90    6.64
   -3.81  -10.46   -7.21
    2.31  -12.62   -3.10
   -3.43   -9.52    4.43
   -2.87  -12.16   -7.77
   -5.24   -9.30   -4.25
  -11.80   -5.02    9.07
  -10.64   -6.87   -7.95
  -11.63   -8.65   -8.73
   -7.34  -11.00    7.12
    1.17  -12.63   -8.93
  -10.14   -7.19    6.71
   -1.39  -11.49   -5.82
   -6.70   -7.78   -5.85
   -5.74  -13.31    3.17
  -10.03  -10.41    3.88
    2.92  -12.77    9.50
   -7.70   -8.87   -8.92
   -6.40  -13.01   -7.59
   -3.67  -12.23    5.82
   -2.57   -9.56    3.11
   -5.00  -13.59   -6.46
    1.68  -14.40   -4.65
    1.52  -13.62    7.81
   -1.99  -13.43    9.36
   -3.11  -13.13   -7.66
   -2.09  -10.86   -0.78
   -8.24  -10.85    9.50
   -4.54  -11.11   -7.71
    2.30  -14.32   -3.79
    2.67  -11.62    0.47
    0.17  -13.65   -7.66
   -3.70  -11.49    7.29
   -7.52  -11.08   -7.83
   -5.57  -13.39   -1.59
    1.62  -14.41   -2.97
   -6.32  -11.01    2.02
   -6.94  -11.51    2.77
   -2.21  -13.64   -7.72
   -8.03  -12.07    4.15
    5.00  -12.60    4.87
  -10.96   -8.08   -9.36
   -3.13  -11.59   -8.56
   -1.22   -9.47    5.15
    4.33  -13.84    2.96
   -8.43   -8.24   -7.08
  -11.76   -7.14    3.41
   -9.79   -8.47    9.22
   -5.44  -11.38    9.50
    4.10  -12.95   -4.94
  -10.79   -8.27   -8.34
  -10.03   -8.76   -7.92
    4.65  -12.99    8.77
   -1.16  -10.26    0.83
    3.59  -11.70    0.91
   -2.91  -11.32   -9.50
    0.39  -12.64    5.23
   -5.63  -12.12   -6.30
   -9.88   -9.69   -2.89
   -2.22  -12.73   -7.27
   -7.38  -11.51   -5.78
  -11.60   -8.70    5.43
   -6.28   -8.78    4.43
   -9.35  -11.08   -8.08
    0.24  -11.37   -3.18
    4.41  -12.59    1.68
  -11.89   -7.77    9.50
   -2.36  -12.22   -8.63
   -9.05   -7.09   -7.98
   -6.99  -12.67   -0.93
    5.70  -12.38   -0.07
  -10.26   -8.79   -9.49
    0.81  -10.89   -7.11
   -9.18   -7.76   -5.99
   -4.34  -11.97    7.93
  -10.16   -9.25    5.71
   -4.66   -9.88    3.81
   -4.24   -8.98   -5.82
    0.54  -14.49    1.97
    2.17  -13.33    5.17
    2.91  -14.21    8.15
   -3.78   -9.41   -4.56
   -3.56  -12.32    9.50
    1.91  -13.50   -3.37
   -8.49   -7.25    9.49
    2.90  -13.03   -3.80
   -4.09   -9.27    6.50
   -3.64   -8.68   -3.90
    0.05  -11.75    2.88
    5.20  -13.54    1.02
   -1.32  -10.12    4.32
   -3.73  -14.01   -3.87
   -7.48  -10.12   -6.03
   -0.69  -10.50    9.50
   -5.45  -13.44   -5.58
    0.10  -11.79   -6.33
   -6.58  -11.05    6.46
   -2.95  -10.83    5.77
    1.22  -14.45   -6.59
   -2.93  -11.37   -1.76
    5.05  -12.66    6.45
    0.16  -12.73    4.23
  -11.60   -8.06   -7.52
   -3.84  -10.37   -0.10
   -0.29  -14.49    9.50
   -6.60  -10.20    6.98
    0.64  -14.49   -4.83
   -8.59   -9.46   -2.74
   -2.56   -9.88    6.96
   -0.67  -10.31   -1.28
   -4.22  -12.07    6.66
  -11.66   -8.62    0.21
   -9.85  -10.64   -3.28
   -0.12  -13.89   -9.50
   -0.67  -11.14   -7.78
   -1.98  -10.81   -9.19
   -4.98  -12.83   -0.08
   -1.92  -14.37    8.67
   -6.47  -11.22   -7.77
   -3.75  -10.88   -9.18
   -4.13   -9.40   -2.50
    3.98  -13.94   -5.53
    3.90  -13.95   -3.84
  -11.04   -9.20   -1.64
  -10.55   -9.23    2.25
   -9.91  -10.59    2.67
    0.07  -12.34    9.50
    1.66  -13.80   -7.22
   -7.48  -11.27    5.01
   -8.30   -9.61   -0.47
   -1.64  -11.56   -2.11
    6.39  -13.02    4.14
    3.23  -14.08   -6.19
   -0.91  -13.55    8.50
   -8.07  -12.04   -4.09
   -6.94   -8.78    5.86
   -9.77  -10.70    7.60
    4.46  -13.80    4.05
   -9.04   -8.63   -0.72
  -10.85   -7.53   -3.16
   -2.71  -12.66   -9.49
    3.10  -12.34    6.45
   -1.18  -13.02    7.34
   -4.52   -9.71   -9.50
   -5.57  -10.44   -8.63
   -3.74   -9.41    3.44
  -10.92   -7.97   -4.69
   -7.91   -9.34   -6.48
   -8.31  -11.84    7.01
   -5.37  -13.47   -7.57
   -6.26   -9.21   -8.53
   -2.72  -14.21   -4.00
   -5.82  -13.28    5.52
   -1.42  -11.42   -4.40
   -0.15   -9.93    3.38
   -4.50   -9.86   -6.24
   -5.15  -13.54    8.43
  -10.05   -9.21    6.73
   -8.12  -11.56   -9.50
   -7.87  -12.18    8.66
   -0.09  -13.07    8.82
   -6.86   -8.75   -5.67
   -4.12   -9.51    8.74
    5.12  -12.75    3.39
  -10.06  -10.43   -0.89
   -9.81  -10.44    9.35
   -1.84  -14.38   -4.45
   -6.54   -9.07   -1.91
   -9.13   -8.04    6.09
   -1.91  -10.55   -4.18
    2.28  -13.02   -7.18
   -3.06  -10.60   -3.94
  -10.89   -7.95    9.50
  -13.43   -5.47   -8.34
    0.23  -14.50    5.88
   -2.13  -10.80    8.33
   -8.96   -8.30    2.53
    0.78  -13.56   -5.24
    1.65  -11.50   -6.93
    2.88  -14.21   -8.50
   -9.21  -11.20   -5.80
   -1.72  -14.40   -5.44
   -7.11  -10.33    7.83
   -7.35  -11.35   -8.77
    0.43  -11.27   -9.50
   -9.68   -9.36   -0.50
    0.59  -10.98    1.64
   -3.39  -13.26   -5.70
    2.80  -11.75   -3.14
   -6.89  -10.60    9.49
   -1.92   -9.92    5.87
   -7.54   -8.08   -8.33
   -2.68   -9.90    5.18
   -8.45   -9.23    7.75
    3.55  -11.86    3.11
[...]
POINT_DATA 2000
SCALARS radius float
LOOKUP_TABLE default
  0.500000000000000     
  0.500000000000000     
  0.500000000000000     
  0.500000000000000     
  0.500000000000000     
  0.500000000000000     
  0.500000000000000     
  0.500000000000000     
  0.500000000000000     
  0.500000000000000     
  0.500000000000000     
  0.500000000000000     
  0.500000000000000     
  0.500000000000000     
  0.500000000000000     
  0.500000000000000     
  0.500000000000000     
  0.500000000000000     
  0.500000000000000     
  0.500000000000000     
  0.500000000000000     
  0.500000000000000     
  0.500000000000000     
  0.500000000000000     
  0.500000000000000     
  0.500000000000000     
  0.500000000000000     
  0.500000000000000     
  0.500000000000000     
  0.500000000000000     
  0.500000000000000     
  0.500000000000000     
  0.500000000000000     
  0.500000000000000     
  0.500000000000000     
  0.500000000000000     
  0.500000000000000     
  0.500000000000000     
  0.500000000000000     
  0.500000000000000     
  0.500000000000000     
  0.500000000000000     
  0.500000000000000     
  0.500000000000000     
  0.500000000000000     
  0.500000000000000     
  0.500000000000000     
  0.500000000000000     
  0.500000000000000     
  0.500000000000000     
  0.500000000000000     
  0.500000000000000     
  0.500000000000000     
  0.500000000000000     
  0.500000000000000     
  0.500000000000000     
  0.500000000000000     
  0.500000000000000     
  0.500000000000000     
  0.500000000000000     
  0.500000000000000     
  0.500000000000000     
  0.500000000000000     
  0.500000000000000     
  0.500000000000000     
  0.500000000000000     
  0.500000000000000     
  0.500000000000000     
  0.500000000000000     
  0.500000000000000     
  0.500000000000000     
  0.500000000000000     
  0.500000000000000     
  0.500000000000000     
  0.500000000000000     
  0.500000000000000     
  0.500000000000000     
  0.500000000000000     
  0.500000000000000     
  0.500000000000000     
  0.500000000000000     
  0.500000000000000     
  0.500000000000000     
  0.500000000000000     
  0.500000000000000     
  0.500000000000000     
  0.500000000000000     
  0.500000000000000     
  0.500000000000000     
  0.500000000000000     
  0.500000000000000     
  0.500000000000000     
  0.500000000000000     
  0.500000000000000     
  0.500000000000000     
  0.500000000000000     
  0.500000000000000     
  0.500000000000000     
  0.500000000000000     
  0.500000000000000     
  0.500000000000000     
  0.500000000000000     
  0.500000000000000     
  0.500000000000000     
  0.500000000000000     
  0.500000000000000     
  0.500000000000000     
  0.500000000000000     
  0.500000000000000     
  0.500000000000000     
  0.500000000000000     
  0.500000000000000     
  0.500000000000000     
  0.500000000000000     
  0.500000000000000     
  0.500000000000000     
  0.500000000000000     
  0.500000000000000     
  0.500000000000000     
  0.500000000000000     
  0.500000000000000     
  0.500000000000000     
  0.500000000000000     
  0.500000000000000     
  0.500000000000000     
  0.500000000000000     
  0.500000000000000     
  0.500000000000000     
  0.500000000000000     
  0.500000000000000     
  0.500000000000000     
  0.500000000000000     
  0.500000000000000     
  0.500000000000000     
  0.500000000000000     
  0.500000000000000     
  0.500000000000000     
  0.500000000000000     
  0.500000000000000     
  0.500000000000000     
  0.500000000000000     
  0.500000000000000     
  0.500000000000000     
  0.500000000000000     
  0.500000000000000     
  0.500000000000000     
  0.500000000000000     
  0.500000000000000     
  0.500000000000000     
  0.500000000000000     
  0.500000000000000     
  0.500000000000000     
  0.500000000000000     
  0.500000000000000     
  0.500000000000000     
  0.500000000000000     
  0.500000000000000     
  0.500000000000000     
  0.500000000000000     
  0.500000000000000     
  0.500000000000000     
  0.500000000000000     
  0.500000000000000     
  0.500000000000000     
  0.500000000000000     
  0.500000000000000     
  0.500000000000000     
  0.500000000000000     
  0.500000000000000     
  0.500000000000000     
  0.500000000000000     
  0.500000000000000     
  0.500000000000000     
  0.500000000000000     
  0.500000000000000     
  0.500000000000000     
  0.500000000000000     
  0.500000000000000     
  0.500000000000000     
  0.500000000000000     
  0.500000000000000     
  0.500000000000000     
  0.500000000000000     
  0.500000000000000     
  0.500000000000000     
  0.500000000000000     
  0.500000000000000     
  0.500000000000000     
  0.500000000000000     
  0.500000000000000     
  0.500000000000000     
  0.500000000000000     
  0.500000000000000     
  0.500000000000000     
  0.500000000000000     
  0.500000000000000     
  0.500000000000000     
  0.500000000000000     
  0.500000000000000     
  0.500000000000000     
  0.500000000000000     
  0.500000000000000     
  0.500000000000000     
  0.500000000000000     
  0.500000000000000     
  0.500000000000000     
  0.500000000000000     
  0.500000000000000     
  0.500000000000000     
  0.500000000000000     
  0.500000000000000     
  0.500000000000000     
  0.500000000000000     
  0.500000000000000     
  0.500000000000000     
  0.500000000000000     
  0.500000000000000     
  0.500000000000000     
  0.500000000000000     
  0.500000000000000     
  0.500000000000000     
  0.500000000000000     
  0.500000000000000     
  0.500000000000000     
  0.500000000000000     
  0.500000000000000     
  0.500000000000000     
  0.500000000000000     
  0.500000000000000     
  0.500000000000000     
  0.500000000000000     
  0.500000000000000     
  0.500000000000000     
  0.500000000000000     
  0.500000000000000     
  0.500000000000000     
  0.500000000000000     
  0.500000000000000     
  0.500000000000000     
  0.500000000000000     
  0.500000000000000     
  0.500000000000000     
  0.500000000000000     
  0.500000000000000     
  0.500000000000000     
  0.500000000000000     
  0.500000000000000     
  0.500000000000000     
  0.500000000000000     
  0.500000000000000     
  0.500000000000000     
  0.500000000000000     
  0.500000000000000     
  0.500000000000000     
  0.500000000000000     
  0.500000000000000     
  0.500000000000000     
  0.500000000000000     
  0.500000000000000     
  0.500000000000000     
  0.500000000000000     
  0.500000000000000     
  0.500000000000000     
  0.500000000000000     
  0.500000000000000     
  0.500000000000000     
  0.500000000000000     
  0.500000000000000     
  0.500000000000000     
  0.500000000000000     
  0.500000000000000     
  0.500000000000000     
  0.500000000000000     
  0.500000000000000     
  0.500000000000000     
  0.500000000000000     
  0.500000000000000     
  0.500000000000000     
  0.500000000000000     
  0.500000000000000     
  0.500000000000000     
  0.500000000000000     
  0.500000000000000     
  0.500000000000000     
  0.500000000000000     
  0.500000000000000     
  0.500000000000000     
  0.500000000000000     
  0.500000000000000     
  0.500000000000000     
  0.500000000000000     
  0.500000000000000     
  0.500000000000000     
  0.500000000000000     
  0.500000000000000     
  0.500000000000000     
  0.500000000000000     
  0.500000000000000     
  0.500000000000000     
  0.500000000000000     
  0.500000000000000     
  0.500000000000000     
  0.500000000000000     
  0.500000000000000     
  0.500000000000000     
  0.500000000000000     
  0.500000000000000     
  0.500000000000000     
  0.500000000000000     
  0.500000000000000     
  0.500000000000000     
  0.500000000000000     
  0.500000000000000     
  0.500000000000000     
  0.500000000000000     
  0.500000000000000     
  0.500000000000000     
  0.500000000000000     
  0.500000000000000     
  0.500000000000000     
  0.500000000000000     
  0.500000000000000     
  0.500000000000000     
  0.500000000000000     
  0.500000000000000     
  0.500000000000000     
  0.500000000000000     
  0.500000000000000     
  0.500000000000000     
  0.500000000000000     
  0.500000000000000     
  0.500000000000000     
  0.500000000000000     
  0.500000000000000     
  0.500000000000000     
  0.500000000000000     
  0.500000000000000     
  0.500000000000000     
  0.500000000000000     
  0.500000000000000     
  0.500000000000000     
  0.500000000000000     
  0.500000000000000     
  0.500000000000000     
  0.500000000000000     
  0.500000000000000     
  0.500000000000000     
  0.500000000000000     
  0.500000000000000     
  0.500000000000000     
  0.500000000000000     
  0.500000000000000     
  0.500000000000000     
  0.500000000000000     
  0.500000000000000     
  0.500000000000000     
  0.500000000000000     
  0.500000000000000     
  0.500000000000000     
  0.500000000000000     
  0.500000000000000     
  0.500000000000000     
  0.500000000000000     
  0.500000000000000     
  0.500000000000000     
  0.500000000000000     
  0.500000000000000     
  0.500000000000000     
  0.500000000000000     
  0.500000000000000     
  0.500000000000000     
  0.500000000000000     
  0.500000000000000     
  0.500000000000000     
  0.500000000000000     
  0.500000000000000     
  0.500000000000000     
  0.500000000000000     
  0.500000000000000     
  0.500000000000000     
  0.500000000000000     
  0.500000000000000     
  0.500000000000000     
  0.500000000000000     
  0.500000000000000     
  0.500000000000000     
  0.500000000000000     
  0.500000000000000     
  0.500000000000000     
  0.500000000000000     
  0.500000000000000     
  0.500000000000000     
  0.500000000000000     
  0.500000000000000     
  0.500000000000000     
  0.500000000000000     
  0.500000000000000     
  0.500000000000000     
  0.500000000000000     
  0.500000000000000     
  0.500000000000000     
  0.500000000000000     
  0.500000000000000     
  0.500000000000000     
  0.500000000000000     
  0.500000000000000     
  0.500000000000000     
  0.500000000000000     
  0.500000000000000     
  0.500000000000000     
  0.500000000000000     
  0.500000000000000     
  0.500000000000000     
  0.500000000000000     
  0.500000000000000     
  0.500000000000000     
  0.500000000000000     
  0.500000000000000     
  0.500000000000000     
  0.500000000000000     
  0.500000000000000     
  0.500000000000000     
  0.500000000000000     
  0.500000000000000     
  0.500000000000000     
  0.500000000000000     
  0.500000000000000     
  0.500000000000000     
  0.500000000000000     
  0.500000000000000     
  0.500000000000000     
  0.500000000000000     
  0.500000000000000     
  0.500000000000000     
  0.500000000000000     
  0.500000000000000     
  0.500000000000000     
  0.500000000000000     
  0.500000000000000     
  0.500000000000000     
  0.500000000000000     
  0.500000000000000     
  0.500000000000000     
  0.500000000000000     
  0.500000000000000     
  0.500000000000000     
  0.500000000000000     
  0.500000000000000     
  0.500000000000000     
  0.500000000000000     
  0.500000000000000     
  0.500000000000000     
  0.500000000000000     
  0.500000000000000     
  0.500000000000000     
  0.500000000000000     
  0.500000000000000     
  0.500000000000000     
  0.500000000000000     
  0.500000000000000     
  0.500000000000000     
  0.500000000000000     
  0.500000000000000     
  0.500000000000000     
  0.500000000000000     
  0.500000000000000     
  0.500000000000000     
  0.500000000000000     
  0.500000000000000     
  0.500000000000000     
  0.500000000000000     
  0.500000000000000     
  0.500000000000000     
  0.500000000000000     
  0.500000000000000     
  0.500000000000000     
  0.500000000000000     
  0.500000000000000     
  0.500000000000000     
  0.500000000000000     
  0.500000000000000     
  0.500000000000000     
  0.500000000000000     
  0.500000000000000     
  0.500000000000000     
  0.500000000000000     
  0.500000000000000     
  0.500000000000000     
  0.500000000000000     
  0.500000000000000     
  0.500000000000000     
  0.500000000000000     
  0.500000000000000     
  0.500000000000000     
  0.500000000000000     
  0.500000000000000     
  0.500000000000000     
  0.500000000000000     
  0.500000000000000     
  0.500000000000000     
  0.500000000000000     
  0.500000000000000     
  0.500000000000000     
  0.500000000000000     
  0.500000000000000     
  0.500000000000000     
  0.500000000000000     
  0.500000000000000     
  0.500000000000000     
  0.500000000000000     
  0.500000000000000     
  0.500000000000000     
  0.500000000000000     
  0.500000000000000     
  0.500000000000000     
  0.500000000000000     
  0.500000000000000     
  0.500000000000000     
  0.500000000000000     
  0.500000000000000     
  0.500000000000000     
  0.500000000000000     
  0.500000000000000     
  0.500000000000000     
  0.500000000000000     
  0.500000000000000     
  0.500000000000000     
  0.500000000000000     
  0.500000000000000     
  0.500000000000000     
  0.500000000000000     
  0.500000000000000     
  0.500000000000000     
  0.500000000000000     
  0.500000000000000     
  0.500000000000000     
  0.500000000000000     
  0.500000000000000     
  0.500000000000000     
  0.500000000000000     
  0.500000000000000     
  0.500000000000000     
  0.500000000000000     
  0.500000000000000     
  0.500000000000000     
  0.500000000000000     
  0.500000000000000     
  0.500000000000000     
  0.500000000000000     
  0.500000000000000     
  0.500000000000000     
  0.500000000000000     
  0.500000000000000     
  0.500000000000000     
  0.500000000000000     
  0.500000000000000     
  0.500000000000000     
  0.500000000000000     
  0.500000000000000     
  0.500000000000000     
  0.500000000000000     
  0.500000000000000     
  0.500000000000000     
  0.500000000000000     
  0.500000000000000     
  0.500000000000000     
  0.500000000000000     
  0.500000000000000     
  0.500000000000000     
  0.500000000000000     
  0.500000000000000     
  0.500000000000000     
  0.500000000000000     
  0.500000000000000     
  0.500000000000000     
  0.500000000000000     
  0.500000000000000     
  0.500000000000000     
  0.500000000000000     
  0.500000000000000     
  0.500000000000000     
  0.500000000000000     
  0.500000000000000     
  0.500000000000000     
  0.500000000000000     
  0.500000000000000     
  0.500000000000000     
  0.500000000000000     
  0.500000000000000     
  0.500000000000000     
  0.500000000000000     
  0.500000000000000     
  0.500000000000000     
  0.500000000000000     
  0.500000000000000     
  0.500000000000000     
  0.500000000000000     
  0.500000000000000     
  0.500000000000000     
  0.500000000000000     
  0.500000000000000     
  0.500000000000000     
  0.500000000000000     
  0.500000000000000     
  0.500000000000000     
  0.500000000000000     
  0.500000000000000     
  0.500000000000000     
  0.500000000000000     
  0.500000000000000     
  0.500000000000000     
  0.500000000000000     
  0.500000000000000     
  0.500000000000000     
  0.500000000000000     
  0.500000000000000     
  0.500000000000000     
  0.500000000000000     
  0.500000000000000     
  0.500000000000000     
  0.500000000000000     
  0.500000000000000     
  0.500000000000000     
  0.500000000000000     
  0.500000000000000     
  0.500000000000000     
  0.500000000000000     
  0.500000000000000     
  0.500000000000000     
  0.500000000000000     
  0.500000000000000     
  0.500000000000000     
  0.500000000000000     
  0.500000000000000     
  0.500000000000000     
  0.500000000000000     
  0.500000000000000     
  0.500000000000000     
  0.500000000000000     
  0.500000000000000     
  0.500000000000000     
  0.500000000000000     
  0.500000000000000     
  0.500000000000000     
  0.500000000000000     
  0.500000000000000     
  0.500000000000000     
  0.500000000000000     
  0.500000000000000     
  0.500000000000000     
  0.500000000000000     
  0.500000000000000     
  0.500000000000000     
  0.500000000000000     
  0.500000000000000     
  0.500000000000000     
  0.500000000000000     
  0.500000000000000     
  0.500000000000000     
  0.500000000000000     
  0.500000000000000     
  0.500000000000000     
  0.500000000000000     
  0.500000000000000     
  0.500000000000000     
  0.500000000000000     
  0.500000000000000     
  0.500000000000000     
  0.500000000000000     
  0.500000000000000     
  0.500000000000000     
  0.500000000000000     
  0.500000000000000     
  0.500000000000000     
  0.500000000000000     
  0.500000000000000     
  0.500000000000000     
  0.500000000000000     
  0.500000000000000     
  0.500000000000000     
  0.500000000000000     
  0.500000000000000     
  0.500000000000000     
  0.500000000000000     
  0.500000000000000     
  0.500000000000000     
  0.500000000000000     
  0.500000000000000     
  0.500000000000000     
  0.500000000000000     
  0.500000000000000     
  0.500000000000000     
  0.500000000000000     
  0.500000000000000     
  0.500000000000000     
  0.500000000000000     
  0.500000000000000     
  0.500000000000000     
  0.500000000000000     
  0.500000000000000     
  0.500000000000000     
  0.500000000000000     
  0.500000000000000     
  0.500000000000000     
  0.500000000000000     
  0.500000000000000     
  0.500000000000000     
  0.500000000000000     
  0.500000000000000     
  0.500000000000000     
  0.500000000000000     
  0.500000000000000     
  0.500000000000000     
  0.500000000000000     
  0.500000000000000     
  0.500000000000000     
  0.500000000000000     
  0.500000000000000     
  0.500000000000000     
  0.500000000000000     
  0.500000000000000     
  0.500000000000000     
  0.500000000000000     
  0.500000000000000     
  0.500000000000000     
  0.500000000000000     
  0.500000000000000     
  0.500000000000000     
  0.500000000000000     
  0.500000000000000     
  0.500000000000000     
  0.500000000000000     
  0.500000000000000     
  0.500000000000000     
  0.500000000000000     
  0.500000000000000     
  0.500000000000000     
  0.500000000000000     
  0.500000000000000     
  0.500000000000000     
  0.500000000000000     
  0.500000000000000     
  0.500000000000000     
  0.500000000000000     
  0.500000000000000     
  0.500000000000000     
  0.500000000000000     
  0.500000000000000     
  0.500000000000000     
  0.500000000000000     
  0.500000000000000     
  0.500000000000000     
  0.500000000000000     
  0.500000000000000     
  0.500000000000000     
  0.500000000000000     
  0.500000000000000     
  0.500000000000000     
  0.500000000000000     
  0.500000000000000     
  0.500000000000000     
  0.500000000000000     
  0.500000000000000     
  0.500000000000000     
  0.500000000000000     
  0.500000000000000     
  0.500000000000000     
  0.500000000000000     
  0.500000000000000     
  0.500000000000000     
  0.500000000000000     
  0.500000000000000     
  0.500000000000000     
  0.500000000000000     
  0.500000000000000     
  0.500000000000000     
  0.500000000000000     
  0.500000000000000     
  0.500000000000000     
  0.500000000000000     
  0.500000000000000     
  0.500000000000000     
  0.500000000000000     
  0.500000000000000     
  0.500000000000000     
  0.500000000000000     
  0.500000000000000     
  0.500000000000000     
  0.500000000000000     
  0.500000000000000     
  0.500000000000000     
  0.500000000000000     
  0.500000000000000     
  0.500000000000000     
  0.500000000000000     
  0.500000000000000     
  0.500000000000000     