# vtk DataFile Version 5.1
Data.vtk
ASCII
DATASET UNSTRUCTURED_GRID
 
POINTS 2000 float
    1.22  -14.45   -1.36
    1.06  -11.19    0.21
   -9.75  -10.73    3.00
   -4.99  -13.61   -2.26
   -1.36  -10.35    5.72
    1.64  -11.80   -9.47
    3.76  -14.00   -8.36
   -9.78   -6.99   -9.20
    2.01  -12.42   -2.55
   -6.37  -11.21   -1.13
   -5.29   -9.26   -2.68
   -2.62  -10.28   -6.32
    0.11  -13.64   -2.67
   -0.09  -12.86    2.72
  -10.82   -8.06   -0.88
    5.12  -13.57    3.56
   -1.98  -11.34    3.12
   -3.56  -13.16    7.87
   -6.28  -13.07    8.49
  -11.10   -7.67   -7.03
  -11.46   -7.77   -1.74
   -7.75  -12.25    8.59
   -3.67  -11.13   -9.50
  -11.93   -8.18   -9.50
   -1.47  -13.55   -1.98
   -6.21   -8.92   -1.20
   -8.79   -8.61    5.88
   -4.35  -11.40    7.71
   -2.21  -10.40   -1.02
   -2.06  -10.34    7.82
  -10.70   -9.78   -6.46
    4.34  -11.97    0.49
   -6.18  -11.91    9.50
    1.58  -12.94   -1.81
  -12.83   -6.76   -6.28
   -9.41  -11.02    8.66
    2.42  -11.96    3.94
   -8.47   -9.62    3.88
   -3.79   -9.66    0.97
   -0.41  -12.73    1.00
    1.94  -14.37   -3.49
   -9.17  -11.23   -2.40
    0.78  -12.59   -5.30
   -3.12  -13.35    0.00
   -1.84  -10.04   -4.91
    5.06  -13.59    4.65
   -0.32  -14.49    8.49
   -6.20  -12.26   -6.28
    1.16  -12.16    0.57
  -10.42  -10.08   -7.79
   -4.72  -13.71   -9.49
   -6.57   -8.59    7.90
    0.21  -10.93    5.43
   -3.35  -11.58    1.21
    3.30  -11.17    2.68
    0.56  -11.89   -0.60
    6.37  -13.02   -4.99
   -7.32   -9.73    1.25
   -9.89   -8.74    0.70
   -0.32  -12.76   -8.88
   -7.21   -8.87   -0.50
   -7.04   -9.11   -8.01
   -3.99  -12.32    7.53
   -7.20  -12.56    1.77
    2.59  -14.27   -0.06
   -7.02  -10.44    0.60
   -6.04  -12.62   -8.64
    1.55  -11.98    2.43
   -2.60  -14.26   -8.46
   -0.60  -12.92   -2.46
   -1.55  -10.57    2.04
  -10.23   -7.18   -7.48
   -1.62  -13.43   -7.94
    1.96  -10.92    2.64
    5.73  -13.32    9.02
   -8.51   -7.48   -6.49
    2.50  -13.39    8.63
   -7.31  -12.52   -6.74
   -4.30  -11.62    1.52
    5.34  -13.48    0.26
  -10.37   -8.29    9.36
    4.86  -13.63    8.63
   -5.19  -12.56   -4.67
    5.03  -13.60   -9.50
   -8.55  -10.47   -7.83
   -1.01  -12.56   -7.00
  -10.57   -9.00    1.51
    5.21  -11.94   -5.55
   -4.08   -9.41   -0.11
   -1.96  -11.93    5.37
    1.53  -11.89   -0.33
  -10.60   -8.33   -9.50
    3.36  -11.72   -5.19
   -0.51  -10.59    3.55
    3.25  -14.12    9.24
    2.72  -11.86   -1.86
   -8.27  -10.85    2.50
   -8.11   -9.47    4.87
   -1.50  -14.42   -5.25
   -4.07   -9.87   -1.00
   -6.39  -13.02    2.13
    5.56  -12.51   -4.58
    0.05  -11.22    0.04
    2.92  -12.10    5.27
   -5.83   -9.39    1.10
    5.39  -12.59   -8.04
   -2.36  -14.31    5.14
    1.30  -11.21   -3.93
  -11.94   -6.94    8.21
   -8.75  -10.50    3.31
   -3.70   -9.14    4.61
   -8.50  -10.70   -1.79
    1.56  -14.42   -2.36
   -0.62  -12.97   -7.82
    0.35  -14.50    5.08
    2.31  -12.66   -8.42
  -10.14   -7.57   -0.27
    1.01  -12.15   -4.43
   -8.78  -11.53    7.61
    1.38  -11.43    5.45
   -5.50  -12.36    8.52
   -1.38  -10.79    8.41
   -5.23   -9.82    7.30
    2.48  -11.86    2.77
    3.16  -11.34   -1.08
    5.35  -13.02   -3.16
   -3.41  -14.09   -5.61
   -9.52   -9.47    2.70
   -7.10  -11.57   -9.50
   -9.85   -9.03   -9.50
   -4.44  -12.11   -3.93
   -0.39  -11.62    1.48
    6.61  -12.90   -2.67
    2.10  -11.42    0.35
   -3.17  -11.29   -6.55
   -6.05  -11.25    8.54
  -12.97   -6.48   -9.33
   -4.39  -13.59   -7.39
   -2.50  -12.97    9.48
   -2.00  -14.36    0.62
    1.54  -12.77   -0.80
  -11.54   -8.64    5.06
   -4.46  -10.45   -5.68
    0.60  -11.30    4.57
   -1.17  -11.91    2.37
  -10.56   -8.41    7.97
   -5.54  -11.09    5.18
   -5.02  -12.76   -9.48
   -6.48  -11.73   -8.55
   -7.43   -8.23   -8.29
    1.52  -12.69    6.38
   -0.67  -11.15   -0.64
   -2.72  -11.15    2.22
    1.32  -12.64   -3.59
  -13.34   -5.55   -9.34
   -7.79  -10.57    1.61
   -6.84  -10.82    1.82
    3.47  -14.08    7.34
   -0.76  -11.33    6.78
   -0.87  -14.47    7.63
   -0.80  -10.35   -4.41
    2.22  -14.33    9.49
  -11.35   -8.99   -9.50
    0.43  -14.49    4.09
    2.60  -13.26   -7.64
   -1.62  -10.81    0.88
  -11.81   -8.04   -4.03
  -12.22   -7.80   -8.62
    4.90  -13.65   -2.52
   -3.51  -10.71   -5.81
   -1.22  -14.45    2.02
   -1.66  -11.47   -5.89
   -5.09  -11.46    8.38
   -0.05  -11.67   -4.84
   -7.68  -10.83    5.71
    2.07  -13.10    2.06
   -6.69   -9.45    9.50
    0.09  -10.90    7.56
   -1.18  -11.37   -2.99
   -5.83  -12.54   -0.99
   -6.86   -8.75   -2.99
    4.26  -13.86    3.99
    0.94  -14.46    2.25
   -0.16  -12.07   -7.16
   -1.73  -11.12    9.50
    3.29  -13.96   -5.53
   -6.36   -9.55   -3.30
  -11.12   -9.31   -8.48
   -5.51   -9.15    2.93
  -10.43  -10.04   -3.37
   -6.99  -10.41   -1.36
   -4.64  -13.10    6.15
  -12.22   -7.54    9.50
   -6.06   -9.32   -7.89
    3.45  -14.08   -4.23
    0.81  -14.48    9.50
    2.99  -12.27   -6.07
   -7.22  -12.57   -9.47
  -10.31  -10.19   -1.52
    2.54  -12.83   -0.24
   -2.36  -12.85    5.40
   -8.67  -10.41    9.49
    0.18  -13.54   -8.50
   -7.13  -11.84   -1.51
   -0.60  -13.53    4.44
  -10.16   -7.78   -8.70
    4.59  -13.75   -4.92
    0.41  -10.32    4.44
    4.51  -12.76   -8.47
   -4.65   -9.80   -6.42
   -1.20  -11.46    4.91
   -8.02  -10.06   -9.36
    2.81  -12.85    4.26
   -3.61  -14.04   -8.54
    3.99  -12.19   -6.20
    1.73  -12.57    1.29
    3.13  -12.30    0.40
  -11.79   -8.44    9.47
   -4.09   -9.84   -7.25
   -8.09   -8.81   -4.43
   -1.66  -12.58    4.67
    1.07  -13.19    7.13
   -9.00   -8.01   -4.16
   -6.10  -11.11   -2.09
   -8.96   -9.45    9.50
   -7.41   -8.77    9.41
   -5.71   -9.84   -6.29
   -4.52  -13.78   -3.95
   -3.22   -9.67    5.91
   -4.25  -10.62   -8.86
  -11.61   -8.60   -5.57
   -0.40  -14.49    5.82
   -4.87  -11.30   -7.29
   -3.15  -10.87    5.98
   -5.19   -8.96   -6.37
   -8.58   -9.07   -1.72
   -5.03  -10.46   -1.09
    3.58  -14.04    1.28
   -0.73  -13.58    3.43
   -7.44   -9.35   -6.35
   -3.30   -9.73    2.54
   -4.22  -13.87    7.63
   -4.73   -9.06   -7.41
   -6.23  -10.76   -8.62
    4.98  -13.62    5.74
   -8.90   -8.28    0.50
    1.42  -12.08   -7.05
    6.60  -12.53    2.37
   -4.85  -10.75    9.43
   -7.94   -8.43    8.64
   -8.07  -10.93   -2.82
    0.29  -10.72   -6.35
   -0.24  -11.22   -7.68
  -11.55   -8.73    7.59
   -4.89  -13.65    9.50
   -2.27  -13.92    3.75
   -9.09   -9.81   -9.50
   -5.14  -13.56    6.89
   -3.69  -10.05   -5.08
    1.68  -11.95   -1.35
   -2.78  -11.86   -8.86
    2.01  -13.54   -5.22
   -3.37   -9.79    3.59
    2.45  -12.55    6.03
   -7.37   -8.15   -4.61
   -7.77  -12.24   -5.88
   -4.21  -13.88    3.19
    3.09  -12.41    3.35
   -5.11  -10.67   -6.54
    1.30  -11.64   -6.15
   -4.25  -10.72   -0.52
   -5.63  -12.50    0.67
   -8.72   -9.06   -8.55
   -4.56  -13.77   -8.39
    0.36  -13.08   -7.63
  -10.15   -7.72    7.37
    1.28  -13.77    5.25
   -0.19  -14.50    9.48
    5.06  -13.59   -8.50
   -8.92  -10.14    0.29
   -8.70  -10.18    6.84
   -9.98  -10.42    7.31
    3.91  -13.29   -6.64
   -4.27  -12.04    9.46
   -6.01  -10.25   -1.17
    3.74  -12.92    7.47
   -5.31  -12.33   -1.84
   -1.76  -12.38    7.21
    3.22  -12.43   -8.06
   -0.67  -14.43    4.85
  -11.45   -8.90    2.13
    3.68  -14.03    8.34
   -2.50  -11.23   -1.92
    2.01  -13.89   -7.11
   -0.80  -11.84    9.50
    0.75  -11.98   -1.76
   -7.03  -12.68   -8.49
   -0.35  -11.98    5.08
   -3.98  -13.14    6.96
  -12.00   -8.12   -7.15
   -5.85  -13.27   -1.88
   -2.56  -14.27    8.01
   -4.47  -11.07    2.34
    3.79  -12.05   -4.15
    2.51  -14.27   -1.09
   -7.05  -12.67    8.01
    0.45  -12.77    6.05
  -11.61   -7.15   -7.78
    1.18  -11.09   -1.50
    2.95  -13.20    9.50
    1.10  -13.70   -6.64
   -2.38  -11.41    4.47
    5.26  -12.30    0.02
   -1.65  -11.45   -1.37
   -1.18  -13.51   -9.50
   -2.85  -14.22   -7.45
   -5.85  -11.11   -9.49
    1.98  -13.64   -0.54
  -10.19   -8.76    3.76
   -5.23   -9.55   -4.66
   -9.33   -7.94   -9.25
    6.11  -13.15   -9.27
  -11.06   -9.30   -3.12
   -9.79  -10.69   -2.97
    4.37  -11.93   -2.81
    3.69  -12.22    1.23
   -0.15  -10.75    1.03
   -2.86  -14.11    9.50
   -8.06  -10.12   -6.49
    0.22  -13.70    3.16
    5.07  -13.14   -0.65
   -0.71  -14.48   -2.67
  -10.42   -9.90    3.20
   -6.69  -10.52   -3.47
   -8.87   -8.13    8.40
   -3.85   -9.43   -1.88
    0.82  -11.87    9.50
   -6.62   -8.68    4.32
   -9.83   -8.83   -0.33
    3.86  -13.38   -1.65
    3.91  -12.81   -2.91
   -7.81   -9.97   -8.38
   -6.00  -13.18    6.53
   -6.54   -9.79    4.89
   -5.50   -9.28   -9.11
   -1.31  -11.17   -8.29
    4.48  -12.78    4.71
    2.56  -11.46   -2.76
   -1.81  -13.00   -6.01
   -6.12   -9.25    5.73
   -4.12   -9.95   -2.69
   -5.96  -10.11   -9.45
   -9.32   -8.69   -3.17
   -1.04  -10.99    2.80
   -3.27  -13.18   -6.00
    4.16  -13.89    6.47
    3.03  -14.18   -9.49
  -12.87   -6.65    8.47
    2.26  -12.97    5.09
   -2.53  -10.54   -3.44
  -12.98   -6.22    7.55
   -9.99   -9.06    8.47
    6.23  -12.55   -6.29
   -3.38  -12.51    9.50
   -6.85  -12.77    3.81
   -0.97  -10.51    0.18
   -0.08  -11.46    3.81
  -13.90   -4.14   -8.64
    3.57  -14.05   -2.38
    1.88  -13.64    7.52
   -2.45  -13.50   -6.88
   -0.17  -13.56   -9.50
   -1.89  -14.38   -7.75
   -5.55   -8.22    8.13
    2.59  -11.75   -3.72
   -8.90   -8.73    2.25
   -6.26  -13.08    9.49
    4.65  -12.83    2.17
   -4.87  -10.82   -2.74
    3.35  -13.21   -9.36
  -11.23   -7.90   -8.78
    2.31  -12.68   -3.47
   -9.15   -9.00   -4.14
   -1.87  -12.74    6.27
    0.58  -11.33   -5.54
   -2.00  -11.92   -9.48
    6.10  -13.16   -1.26
   -1.50  -14.42    3.33
   -8.04   -8.15   -5.88
   -2.35  -14.31   -9.50
   -6.83   -8.24    8.80
   -1.19  -14.45    9.48
    2.85  -12.01   -7.04
   -1.72  -13.60    9.50
    2.48  -12.62    7.17
   -4.35  -13.83    5.42
[...]
POINT_DATA 2000
SCALARS radius float
LOOKUP_TABLE default
  0.500000000000000     
  0.500000000000000     
  0.500000000000000     
  0.500000000000000     
  0.500000000000000     
  0.500000000000000     
  0.500000000000000     
  0.500000000000000     
  0.500000000000000     
  0.500000000000000     
  0.500000000000000     
  0.500000000000000     
  0.500000000000000     
  0.500000000000000     
  0.500000000000000     
  0.500000000000000     
  0.500000000000000     
  0.500000000000000     
  0.500000000000000     
  0.500000000000000     
  0.500000000000000     
  0.500000000000000     
  0.500000000000000     
  0.500000000000000     
  0.500000000000000     
  0.500000000000000     
  0.500000000000000     
  0.500000000000000     
  0.500000000000000     
  0.500000000000000     
  0.500000000000000     
  0.500000000000000     
  0.500000000000000     
  0.500000000000000     
  0.500000000000000     
  0.500000000000000     
  0.500000000000000     
  0.500000000000000     
  0.500000000000000     
  0.500000000000000     
  0.500000000000000     
  0.500000000000000     
  0.500000000000000     
  0.500000000000000     
  0.500000000000000     
  0.500000000000000     
  0.500000000000000     
  0.500000000000000     
  0.500000000000000     
  0.500000000000000     
  0.500000000000000     
  0.500000000000000     
  0.500000000000000     
  0.500000000000000     
  0.500000000000000     
  0.500000000000000     
  0.500000000000000     
  0.500000000000000     
  0.500000000000000     
  0.500000000000000     
  0.500000000000000     
  0.500000000000000     
  0.500000000000000     
  0.500000000000000     
  0.500000000000000     
  0.500000000000000     
  0.500000000000000     
  0.500000000000000     
  0.500000000000000     
  0.500000000000000     
  0.500000000000000     
  0.500000000000000     
  0.500000000000000     
  0.500000000000000     
  0.500000000000000     
  0.500000000000000     
  0.500000000000000     
  0.500000000000000     
  0.500000000000000     
  0.500000000000000     
  0.500000000000000     
  0.500000000000000     
  0.500000000000000     
  0.500000000000000     
  0.500000000000000     
  0.500000000000000     
  0.500000000000000     
  0.500000000000000     
  0.500000000000000     
  0.500000000000000     
  0.500000000000000     
  0.500000000000000     
  0.500000000000000     
  0.500000000000000     
  0.500000000000000     
  0.500000000000000     
  0.500000000000000     
  0.500000000000000     
  0.500000000000000     
  0.500000000000000     
  0.500000000000000     
  0.500000000000000     
  0.500000000000000     
  0.500000000000000     
  0.500000000000000     
  0.500000000000000     
  0.500000000000000     
  0.500000000000000     
  0.500000000000000     
  0.500000000000000     
  0.500000000000000     
  0.500000000000000     
  0.500000000000000     
  0.500000000000000     
  0.500000000000000     
  0.500000000000000     
  0.500000000000000     
  0.500000000000000     
  0.500000000000000     
  0.500000000000000     
  0.500000000000000     
  0.500000000000000     
  0.500000000000000     
  0.500000000000000     
  0.500000000000000     
  0.500000000000000     
  0.500000000000000     
  0.500000000000000     
  0.500000000000000     
  0.500000000000000     
  0.500000000000000     
  0.500000000000000     
  0.500000000000000     
  0.500000000000000     
  0.500000000000000     
  0.500000000000000     
  0.500000000000000     
  0.500000000000000     
  0.500000000000000     
  0.500000000000000     
  0.500000000000000     
  0.500000000000000     
  0.500000000000000     
  0.500000000000000     
  0.500000000000000     
  0.500000000000000     
  0.500000000000000     
  0.500000000000000     
  0.500000000000000     
  0.500000000000000     
  0.500000000000000     
  0.500000000000000     
  0.500000000000000     
  0.500000000000000     
  0.500000000000000     
  0.500000000000000     
  0.500000000000000     
  0.500000000000000     
  0.500000000000000     
  0.500000000000000     
  0.500000000000000     
  0.500000000000000     
  0.500000000000000     
  0.500000000000000     
  0.500000000000000     
  0.500000000000000     
  0.500000000000000     
  0.500000000000000     
  0.500000000000000     
  0.500000000000000     
  0.500000000000000     
  0.500000000000000     
  0.500000000000000     
  0.500000000000000     
  0.500000000000000     
  0.500000000000000     
  0.500000000000000     
  0.500000000000000     
  0.500000000000000     
  0.500000000000000     
  0.500000000000000     
  0.500000000000000     
  0.500000000000000     
  0.500000000000000     
  0.500000000000000     
  0.500000000000000     
  0.500000000000000     
  0.500000000000000     
  0.500000000000000     
  0.500000000000000     
  0.500000000000000     
  0.500000000000000     
  0.500000000000000     
  0.500000000000000     
  0.500000000000000     
  0.500000000000000     
  0.500000000000000     
  0.500000000000000     
  0.500000000000000     
  0.500000000000000     
  0.500000000000000     
  0.500000000000000     
  0.500000000000000     
  0.500000000000000     
  0.500000000000000     
  0.500000000000000     
  0.500000000000000     
  0.500000000000000     
  0.500000000000000     
  0.500000000000000     
  0.500000000000000     
  0.500000000000000     
  0.500000000000000     
  0.500000000000000     
  0.500000000000000     
  0.500000000000000     
  0.500000000000000     
  0.500000000000000     
  0.500000000000000     
  0.500000000000000     
  0.500000000000000     
  0.500000000000000     
  0.500000000000000     
  0.500000000000000     
  0.500000000000000     
  0.500000000000000     
  0.500000000000000     
  0.500000000000000     
  0.500000000000000     
  0.500000000000000     
  0.500000000000000     
  0.500000000000000     
  0.500000000000000     
  0.500000000000000     
  0.500000000000000     
  0.500000000000000     
  0.500000000000000     
  0.500000000000000     
  0.500000000000000     
  0.500000000000000     
  0.500000000000000     
  0.500000000000000     
  0.500000000000000     
  0.500000000000000     
  0.500000000000000     
  0.500000000000000     
  0.500000000000000     
  0.500000000000000     
  0.500000000000000     
  0.500000000000000     
  0.500000000000000     
  0.500000000000000     
  0.500000000000000     
  0.500000000000000     
  0.500000000000000     
  0.500000000000000     
  0.500000000000000     
  0.500000000000000     
  0.500000000000000     
  0.500000000000000     
  0.500000000000000     
  0.500000000000000     
  0.500000000000000     
  0.500000000000000     
  0.500000000000000     
  0.500000000000000     
  0.500000000000000     
  0.500000000000000     
  0.500000000000000     
  0.500000000000000     
  0.500000000000000     
  0.500000000000000     
  0.500000000000000     
  0.500000000000000     
  0.500000000000000     
  0.500000000000000     
  0.500000000000000     
  0.500000000000000     
  0.500000000000000     
  0.500000000000000     
  0.500000000000000     
  0.500000000000000     
  0.500000000000000     
  0.500000000000000     
  0.500000000000000     
  0.500000000000000     
  0.500000000000000     
  0.500000000000000     
  0.500000000000000     
  0.500000000000000     
  0.500000000000000     
  0.500000000000000     
  0.500000000000000     
  0.500000000000000     
  0.500000000000000     
  0.500000000000000     
  0.500000000000000     
  0.500000000000000     
  0.500000000000000     
  0.500000000000000     
  0.500000000000000     
  0.500000000000000     
  0.500000000000000     
  0.500000000000000     
  0.500000000000000     
  0.500000000000000     
  0.500000000000000     
  0.500000000000000     
  0.500000000000000     
  0.500000000000000     
  0.500000000000000     
  0.500000000000000     
  0.500000000000000     
  0.500000000000000     
  0.500000000000000     
  0.500000000000000     
  0.500000000000000     
  0.500000000000000     
  0.500000000000000     
  0.500000000000000     
  0.500000000000000     
  0.500000000000000     
  0.500000000000000     
  0.500000000000000     
  0.500000000000000     
  0.500000000000000     
  0.500000000000000     
  0.500000000000000     
  0.500000000000000     
  0.500000000000000     
  0.500000000000000     
  0.500000000000000     
  0.500000000000000     
  0.500000000000000     
  0.500000000000000     
  0.500000000000000     
  0.500000000000000     
  0.500000000000000     
  0.500000000000000     
  0.500000000000000     
  0.500000000000000     
  0.500000000000000     
  0.500000000000000     
  0.500000000000000     
  0.500000000000000     
  0.500000000000000     
  0.500000000000000     
  0.500000000000000     
  0.500000000000000     
  0.500000000000000     
  0.500000000000000     
  0.500000000000000     
  0.500000000000000     
  0.500000000000000     
  0.500000000000000     
  0.500000000000000     
  0.500000000000000     
  0.500000000000000     
  0.500000000000000     
  0.500000000000000     
  0.500000000000000     
  0.500000000000000     
  0.500000000000000     
  0.500000000000000     
  0.500000000000000     
  0.500000000000000     
  0.500000000000000     
  0.500000000000000     
  0.500000000000000     
  0.500000000000000     
  0.500000000000000     
  0.500000000000000     
  0.500000000000000     
  0.500000000000000     
  0.500000000000000     
  0.500000000000000     
  0.500000000000000     
  0.500000000000000     
  0.500000000000000     
  0.500000000000000     
  0.500000000000000     
  0.500000000000000     
  0.500000000000000     
  0.500000000000000     
  0.500000000000000     
  0.500000000000000     
  0.500000000000000     
  0.500000000000000     
  0.500000000000000     
  0.500000000000000     
  0.500000000000000     
  0.500000000000000     
  0.500000000000000     
  0.500000000000000     
  0.500000000000000     
  0.500000000000000     
  0.500000000000000     
  0.500000000000000     
  0.500000000000000     
  0.500000000000000     
  0.500000000000000     
  0.500000000000000     
  0.500000000000000     
  0.500000000000000     
  0.500000000000000     
  0.500000000000000     
  0.500000000000000     
  0.500000000000000     
  0.500000000000000     
  0.500000000000000     
  0.500000000000000     
  0.500000000000000     
  0.500000000000000     
  0.500000000000000     
  0.500000000000000     
  0.500000000000000     
  0.500000000000000     
  0.500000000000000     
  0.500000000000000     
  0.500000000000000     
  0.500000000000000     
  0.500000000000000     
  0.500000000000000     
  0.500000000000000     
  0.500000000000000     
  0.500000000000000     
  0.500000000000000     
  0.500000000000000     
  0.500000000000000     
  0.500000000000000     
  0.500000000000000     
  0.500000000000000     
  0.500000000000000     
  0.500000000000000     
  0.500000000000000     
  0.500000000000000     
  0.500000000000000     
  0.500000000000000     
  0.500000000000000     
  0.500000000000000     
  0.500000000000000     
  0.500000000000000     
  0.500000000000000     
  0.500000000000000     
  0.500000000000000     
  0.500000000000000     
  0.500000000000000     
  0.500000000000000     
  0.500000000000000     
  0.500000000000000     
  0.500000000000000     
  0.500000000000000     
  0.500000000000000     
  0.500000000000000     
  0.500000000000000     
  0.500000000000000     
  0.500000000000000     
  0.500000000000000     
  0.500000000000000     
  0.500000000000000     
  0.500000000000000     
  0.500000000000000     
  0.500000000000000     
  0.500000000000000     
  0.500000000000000     
  0.500000000000000     
  0.500000000000000     
  0.500000000000000     
  0.500000000000000     
  0.500000000000000     
  0.500000000000000     
  0.500000000000000     
  0.500000000000000     
  0.500000000000000     
  0.500000000000000     
  0.500000000000000     
  0.500000000000000     
  0.500000000000000     
  0.500000000000000     
  0.500000000000000     
  0.500000000000000     
  0.500000000000000     
  0.500000000000000     
  0.500000000000000     
  0.500000000000000     
  0.500000000000000     
  0.500000000000000     
  0.500000000000000     
  0.500000000000000     
  0.500000000000000     
  0.500000000000000     
  0.500000000000000     
  0.500000000000000     
  0.500000000000000     
  0.500000000000000     
  0.500000000000000     
  0.500000000000000     
  0.500000000000000     
  0.500000000000000     
  0.500000000000000     
  0.500000000000000     
  0.500000000000000     
  0.500000000000000     
  0.500000000000000     
  0.500000000000000     
  0.500000000000000     
  0.500000000000000     
  0.500000000000000     
  0.500000000000000     
  0.500000000000000     
  0.500000000000000     
  0.500000000000000     
  0.500000000000000     
  0.500000000000000     
  0.500000000000000     
  0.500000000000000     
  0.500000000000000     
  0.500000000000000     
  0.500000000000000     
  0.500000000000000     
  0.500000000000000     
  0.500000000000000     
  0.500000000000000     
  0.500000000000000     
  0.500000000000000     
  0.500000000000000     
  0.500000000000000     
  0.500000000000000     
  0.500000000000000     
  0.500000000000000     
  0.500000000000000     
  0.500000000000000     
  0.500000000000000     
  0.500000000000000     
  0.500000000000000     
  0.500000000000000     
  0.500000000000000     
  0.500000000000000     
  0.500000000000000     
  0.500000000000000     
  0.500000000000000     
  0.500000000000000     
  0.500000000000000     
  0.500000000000000     
  0.500000000000000     
  0.500000000000000     
  0.500000000000000     
  0.500000000000000     
  0.500000000000000     
  0.500000000000000     
  0.500000000000000     
  0.500000000000000     
  0.500000000000000     
  0.500000000000000     
  0.500000000000000     
  0.500000000000000     
  0.500000000000000     
  0.500000000000000     
  0.500000000000000     
  0.500000000000000     
  0.500000000000000     
  0.500000000000000     
  0.500000000000000     
  0.500000000000000     
  0.500000000000000     
  0.500000000000000     
  0.500000000000000     
  0.500000000000000     
  0.500000000000000     
  0.500000000000000     
  0.500000000000000     
  0.500000000000000     
  0.500000000000000     
  0.500000000000000     
  0.500000000000000     
  0.500000000000000     
  0.500000000000000     
  0.500000000000000     
  0.500000000000000     
  0.500000000000000     
  0.500000000000000     
  0.500000000000000     
  0.500000000000000     
  0.500000000000000     
  0.500000000000000     
  0.500000000000000     
  0.500000000000000     
  0.500000000000000     
  0.500000000000000     
  0.500000000000000     
  0.500000000000000     
  0.500000000000000     
  0.500000000000000     
  0.500000000000000     
  0.500000000000000     
  0.500000000000000     
  0.500000000000000     
  0.500000000000000     
  0.500000000000000     
  0.500000000000000     
  0.500000000000000     
  0.500000000000000     
  0.500000000000000     
  0.500000000000000     
  0.500000000000000     
  0.500000000000000     
  0.500000000000000     
  0.500000000000000     
  0.500000000000000     
  0.500000000000000     
  0.500000000000000     
  0.500000000000000     
  0.500000000000000     
  0.500000000000000     
  0.500000000000000     
  0.500000000000000     
  0.500000000000000     
  0.500000000000000     
  0.500000000000000     
  0.500000000000000     
  0.500000000000000     
  0.500000000000000     
  0.500000000000000     
  0.500000000000000     
  0.500000000000000     
  0.500000000000000     
  0.500000000000000     
  0.500000000000000     
  0.500000000000000     
  0.500000000000000     
  0.500000000000000     
  0.500000000000000     
  0.500000000000000     
  0.500000000000000     
  0.500000000000000     
  0.500000000000000     
  0.500000000000000     
  0.500000000000000     
  0.500000000000000     
  0.500000000000000     
  0.500000000000000     
  0.500000000000000     
  0.500000000000000     
  0.500000000000000     
  0.500000000000000     
  0.500000000000000     
  0.500000000000000     
  0.500000000000000     
  0.500000000000000     
  0.500000000000000     
  0.500000000000000     
  0.500000000000000     
  0.500000000000000     
  0.500000000000000     
  0.500000000000000     
  0.500000000000000     
  0.500000000000000     
  0.500000000000000     
  0.500000000000000     
  0.500000000000000     
  0.500000000000000     
  0.500000000000000     
  0.500000000000000     
  0.500000000000000     
  0.500000000000000     
  0.500000000000000     
  0.500000000000000     
  0.500000000000000     
  0.500000000000000     
  0.500000000000000     
  0.500000000000000     
  0.500000000000000     
  0.500000000000000     
  0.500000000000000     
  0.500000000000000     
  0.500000000000000     
  0.500000000000000     
  0.500000000000000     
  0.500000000000000     
  0.500000000000000     
  0.500000000000000     
  0.500000000000000     
  0.500000000000000     
  0.500000000000000     
  0.500000000000000     
  0.500000000000000     
  0.500000000000000     
  0.500000000000000     
  0.500000000000000     
  0.500000000000000     
  0.500000000000000     
  0.500000000000000     
  0.500000000000000     
  0.500000000000000     
  0.500000000000000     
  0.500000000000000     
  0.500000000000000     
  0.500000000000000     
  0.500000000000000     
  0.500000000000000     
  0.500000000000000     
  0.500000000000000     
  0.500000000000000     
  0.500000000000000     
  0.500000000000000     
  0.500000000000000     
  0.500000000000000     
  0.500000000000000     
  0.500000000000000     
  0.500000000000000     
  0.500000000000000     
  0.500000000000000     
  0.500000000000000     
  0.500000000000000     
  0.500000000000000     
  0.500000000000000     
  0.500000000000000     
  0.500000000000000     
  0.500000000000000     
  0.500000000000000     
  0.500000000000000     
  0.500000000000000     
  0.500000000000000     
  0.500000000000000     
  0.500000000000000     
  0.500000000000000     
  0.500000000000000     
  0.500000000000000     
  0.500000000000000     
  0.500000000000000     
  0.500000000000000     
  0.500000000000000     
  0.500000000000000     
  0.500000000000000     
  0.500000000000000     
  0.500000000000000     
  0.500000000000000     
  0.500000000000000     
  0.500000000000000     
  0.500000000000000     
  0.500000000000000     
  0.500000000000000     
  0.500000000000000     
  0.500000000000000     
  0.500000000000000     
  0.500000000000000     
  0.500000000000000     
  0.500000000000000     
  0.500000000000000     
  0.500000000000000     
  0.500000000000000     
  0.500000000000000     
  0.500000000000000     
  0.500000000000000     
  0.500000000000000     
  0.500000000000000     
  0.500000000000000     
  0.500000000000000     
  0.500000000000000     
  0.500000000000000     
  0.500000000000000     
  0.500000000000000     
  0.500000000000000     
  0.500000000000000     
  0.500000000000000     
  0.500000000000000     
  0.500000000000000     
  0.500000000000000     
  0.500000000000000     
  0.500000000000000     
  0.500000000000000     
  0.500000000000000     
  0.500000000000000     
  0.500000000000000     
  0.500000000000000     
  0.500000000000000     
  0.500000000000000     
  0.500000000000000     
  0.500000000000000     
  0.500000000000000     
  0.500000000000000     
  0.500000000000000     
  0.500000000000000     
  0.500000000000000     
  0.500000000000000     
  0.500000000000000     
  0.500000000000000     
  0.500000000000000     
  0.500000000000000     
  0.500000000000000     
  0.500000000000000     
  0.500000000000000     
  0.500000000000000     
  0.500000000000000     
  0.500000000000000     
  0.500000000000000     
  0.500000000000000     