# vtk DataFile Version 5.1
Data.vtk
ASCII
DATASET UNSTRUCTURED_GRID
 
POINTS 2000 float
   -3.31  -10.74   -0.56
   -9.64  -10.78    2.08
    3.40  -12.08    2.74
   -3.55  -11.61   -1.23
   -4.18  -12.99    7.40
   -1.18  -11.61   -9.50
  -13.41   -5.19   -7.23
    2.40  -13.22   -8.23
  -11.26   -9.04   -4.93
   -4.87  -12.85   -0.79
    0.22  -14.50   -4.24
   -2.08  -12.59   -9.50
   -2.86  -10.77   -1.53
   -5.26  -11.78    0.34
    3.92  -13.94   -1.46
  -11.38   -8.90    1.18
   -7.69  -11.07    5.71
    1.22  -11.60    4.00
   -5.59   -9.38    6.09
    3.37  -11.80   -3.97
    4.58  -13.34   -1.01
   -2.86  -10.23    4.76
   -6.65  -10.63   -9.50
   -1.71  -10.99   -3.87
   -3.08  -11.69   -0.35
   -9.70  -10.78   -8.57
    3.28  -13.24    5.78
   -1.29  -11.96    7.29
   -5.56  -13.39   -1.33
    0.96  -14.47    9.46
    2.49  -12.38   -3.31
   -7.84  -11.92   -2.06
  -11.24   -9.05    8.58
   -8.00  -10.91   -2.66
    2.43  -13.69   -4.46
   -3.45  -10.47    6.06
   -5.69  -13.33    9.50
   -0.77  -13.72    6.09
   -1.60  -14.41    1.36
   -5.02  -11.86    1.31
  -12.25   -7.21    2.80
    5.73  -13.32   -1.15
   -2.84  -14.22   -8.62
   -1.55  -12.01    1.00
   -3.48  -13.45   -8.68
  -13.56   -4.24    6.42
   -9.96   -7.75    4.20
   -1.43  -11.84   -4.40
  -13.21   -5.93    3.59
   -0.69  -10.66   -5.97
   -6.64   -9.24   -5.17
   -1.76  -11.49    9.50
   -2.40  -13.38    8.00
   -6.51  -11.98    2.31
   -6.66  -12.88    5.37
   -9.50  -10.28    0.61
  -11.03   -9.38   -7.58
    0.65  -14.46    3.17
    3.08  -14.17    0.99
   -8.59  -10.29   -9.50
    1.57  -14.41   -2.70
   -1.15  -14.45   -9.31
   -3.11  -12.40    6.78
   -2.41  -10.35    2.44
   -6.54   -9.15    0.54
   -4.79  -12.76    0.20
    3.42  -13.42   -2.91
   -7.82  -11.06    4.00
    1.41  -11.91   -1.50
   -8.95   -9.52   -2.92
   -7.77  -12.24    8.51
   -0.91  -10.22   -4.24
   -4.63  -11.04   -2.96
   -7.84  -12.20    6.76
  -12.41   -7.44    5.21
    6.28  -13.07   -6.67
  -11.89   -8.30    8.43
   -8.39   -7.92   -4.99
   -5.05  -12.38    2.16
  -11.49   -8.80   -3.04
   -7.87   -8.17    7.20
  -11.15   -9.27    6.63
   -0.15  -12.37   -1.57
  -13.81   -4.43   -7.77
    1.14  -12.37   -6.53
   -6.99  -10.87   -5.33
    5.86  -12.59    1.25
   -9.70   -9.61   -6.67
   -3.43  -14.09   -0.09
   -8.59   -9.61    6.36
   -7.17  -10.68    0.40
   -3.55   -9.42   -7.55
   -3.07  -14.14   -3.83
   -2.07  -14.35    9.44
   -6.73  -10.01    2.45
   -6.94  -12.73   -3.93
    1.28  -13.97    2.56
   -2.72  -13.36    5.41
   -7.22   -8.78   -1.64
   -3.54  -14.04   -1.88
    0.87  -11.72    1.80
  -10.66   -9.18   -4.07
   -6.74  -12.84    1.15
  -11.11   -9.31    7.63
    0.41  -14.49    2.07
  -12.16   -7.83   -8.60
   -5.57  -10.47    4.11
   -4.05  -13.92   -3.87
    4.90  -12.72    5.54
   -0.28  -12.84    3.68
   -2.40  -14.30    7.62
   -2.51  -13.33   -2.51
  -10.20   -8.32   -3.02
   -7.06   -9.31   -6.98
   -4.12  -10.03    1.96
   -8.49   -8.54   -8.07
    2.07  -14.35    0.82
   -3.46  -14.08   -7.84
    0.48  -11.11    2.63
   -3.53  -12.47    9.50
   -7.68   -7.97    6.13
   -8.69  -11.61    9.45
   -0.79  -11.61    8.56
   -7.90  -12.13    4.35
   -4.44  -13.80    0.22
  -11.79   -8.20   -4.85
   -7.40   -8.08   -4.32
    5.48  -13.42    2.62
   -5.10   -8.63   -5.63
   -8.65   -7.70   -7.12
   -4.17  -12.22   -3.93
   -6.35  -13.03    3.40
   -9.10  -11.29   -0.51
   -8.39  -11.82    0.66
   -3.39  -12.50   -8.40
    0.13  -12.14    6.30
    3.22  -13.25   -4.02
    1.82  -11.14   -2.62
  -10.71   -7.19    9.01
   -1.41  -10.35    2.37
   -8.59  -10.35   -3.36
    5.55  -13.40    3.65
   -2.49  -13.42   -6.47
   -1.01  -13.98    9.49
   -5.60  -13.37    6.73
    0.81  -11.41    7.08
   -2.24  -12.48    5.39
  -13.26   -5.63   -9.14
   -4.22  -10.28   -4.29
    0.36  -11.77   -8.33
   -6.59  -11.21    4.51
   -5.78  -13.30   -2.31
   -4.93  -13.63    5.78
   -6.58  -12.92   -6.36
    3.12  -12.51   -4.82
    4.18  -13.88    1.71
    3.43  -14.07    2.35
  -12.29   -7.70    7.73
   -1.34  -13.59    6.92
  -10.93   -7.51    4.23
   -2.39  -14.30   -7.73
  -13.61   -4.99    8.37
   -4.38   -9.07   -6.96
  -10.78   -7.29    0.42
   -6.07  -11.02   -8.78
   -7.34  -12.48    1.86
    0.89  -13.69   -2.05
    1.08  -11.62   -5.55
  -12.13   -7.95   -1.35
   -5.93  -12.27   -7.66
   -5.51   -9.53    0.45
   -6.63  -11.92   -8.32
   -5.38  -11.28    8.04
   -5.76  -13.30   -6.78
   -0.76  -13.49    5.12
   -8.56  -11.71   -1.38
   -2.90  -12.25    8.57
   -4.62  -12.71    9.50
   -6.13  -13.14   -5.43
   -2.20  -12.83   -0.45
    4.85  -13.66   -9.50
  -12.00   -8.14    1.33
   -9.62   -7.42   -0.80
   -5.65  -11.58   -9.50
   -4.36  -10.68    7.91
   -6.46   -9.64   -3.10
    0.65  -14.49   -6.12
    2.44  -12.04   -4.25
    0.64  -14.49    7.35
    3.31  -13.16   -1.60
   -3.50  -13.19   -2.46
   -0.46  -11.92    4.02
   -5.33   -9.38    8.06
   -1.08  -12.60   -9.50
  -10.90   -9.56   -5.70
   -9.02   -8.82    5.74
   -9.16  -11.22   -9.49
   -4.09   -9.78   -3.28
    5.23  -13.35   -0.24
  -10.64   -8.18   -2.05
   -8.96  -10.21    5.33
   -9.82   -6.87    9.43
   -4.92  -10.28   -3.55
   -1.55  -12.93   -1.30
    2.61  -13.51    2.23
    3.25  -13.32   -8.75
  -11.61   -6.84   -7.28
   -3.80  -13.43    9.50
  -13.69   -4.79   -8.81
   -2.61  -11.96   -8.73
   -6.49  -11.83    6.74
   -4.78  -10.64   -6.96
   -9.77  -10.60    3.11
    1.30  -12.79   -2.46
   -9.97  -10.52   -9.50
  -12.66   -7.01   -0.36
  -10.23  -10.28    1.44
    3.42  -13.09    4.13
   -2.74  -12.54   -6.88
    4.09  -13.90   -4.63
  -12.97   -6.41    9.49
   -8.01   -9.00    5.76
   -1.46  -13.47   -8.51
   -2.09  -13.51   -3.43
   -5.59   -8.44    8.29
   -7.13   -8.42    8.77
    3.10  -14.16   -9.50
   -7.98   -8.06   -1.95
   -2.65  -11.98    9.50
   -0.89  -12.05   -8.65
    5.71  -13.33   -2.68
   -4.75  -11.04    4.07
    0.19  -12.55   -6.25
   -3.77  -12.17    7.98
    4.02  -13.55   -8.07
    2.65  -14.26   -2.39
   -7.06  -12.65    0.09
  -10.34  -10.15    2.42
   -3.90  -11.20    2.89
   -1.09  -12.82   -6.97
   -1.76  -13.43    4.94
  -13.70   -3.97    7.99
    0.43  -13.49   -9.50
   -1.81  -11.43   -8.09
  -11.52   -8.47    4.07
   -2.66  -14.25    1.33
   -2.17  -11.47   -9.47
  -11.76   -8.31   -2.21
  -12.49   -7.29    9.45
   -2.82  -11.71    7.71
   -0.62  -13.66   -2.88
   -3.97  -13.15   -9.50
   -6.98  -10.63   -8.56
    0.58  -10.95    5.47
   -9.63   -8.44    4.89
   -3.09  -11.65    3.27
   -9.30   -8.36   -9.49
    1.97  -11.56    1.74
   -0.96  -13.54   -7.65
   -7.61  -10.66   -0.50
   -6.29   -8.07   -8.78
  -10.30   -8.61   -7.75
   -0.39  -14.49    7.56
  -10.65   -9.85    8.46
    3.26  -14.13   -7.72
   -1.90  -10.46   -2.09
   -2.97   -9.82    1.25
  -10.21  -10.28    9.44
   -1.61  -11.98   -6.80
   -4.18  -11.90   -8.56
   -6.59  -11.84   -0.57
   -1.65  -13.55    0.86
    3.27  -12.01   -6.89
   -3.34   -9.53   -3.92
   -9.03   -7.70   -8.09
    1.70  -11.85    7.07
   -5.90  -11.71    3.19
  -10.49   -8.26    7.51
   -9.75   -8.14   -8.63
    3.96  -13.95   -0.46
    0.76  -13.80    5.54
   -2.60   -9.53    5.62
   -7.87   -9.62   -4.90
   -6.38  -10.37    9.33
   -2.61  -14.26   -2.17
  -10.89   -9.57    5.70
   -0.69  -13.58   -0.91
   -4.72  -11.98    7.75
  -11.13   -9.30   -8.57
  -12.24   -5.56    4.42
    1.61  -13.01    2.75
  -10.90   -9.56    9.50
   -7.78  -12.23   -3.67
   -7.05  -11.55   -6.80
  -10.69   -8.11    8.51
   -8.54  -10.34   -0.14
   -1.85  -11.09   -4.91
   -9.13  -10.07    7.96
    0.36  -12.25    4.50
    4.92  -11.82   -4.59
    1.36  -12.60    0.40
   -1.31  -10.59    3.34
   -3.43  -13.30    3.08
  -10.58   -9.90   -2.28
  -10.71   -7.28   -0.67
   -0.97  -11.93    5.71
  -12.24   -7.34    6.19
    1.61  -12.23   -4.79
   -3.42  -14.09   -2.89
   -7.92  -10.96    9.50
   -6.73  -10.74   -6.29
   -7.46  -11.00    6.69
   -7.80  -12.21   -0.97
   -2.10  -14.35   -1.31
   -9.74   -8.36   -6.81
   -7.76   -9.31   -3.96
   -3.66  -10.27   -9.50
  -12.10   -7.99   -3.12
    3.04  -14.18    5.51
   -4.31  -12.89   -8.60
    0.16  -12.23   -7.20
   -9.26  -11.15   -6.07
   -1.05  -12.21   -2.10
   -1.58  -11.87   -3.41
   -7.19  -12.59   -5.60
  -12.64   -7.09   -1.36
   -4.26  -13.86    5.07
  -12.16   -6.49    5.66
   -0.29  -13.42   -6.90
    1.23  -12.78    1.51
   -9.22  -11.19   -3.34
    0.07  -13.20   -0.38
    4.84  -12.61    1.65
   -1.13  -13.44   -3.71
    2.12  -12.43    8.31
   -0.09  -14.44   -3.22
   -7.26  -11.55    9.01
    4.40  -13.82    5.42
    1.85  -14.38   -0.21
   -9.47   -9.53   -1.51
   -9.58  -10.87   -5.16
   -5.91   -8.80   -8.22
   -6.09   -8.82    4.29
   -3.10  -13.33    6.41
   -3.60  -10.03   -8.35
   -2.53  -12.69   -7.85
  -12.65   -7.06    7.06
   -6.39  -12.97   -3.13
   -2.22  -12.62   -3.91
    1.11  -14.36    8.47
    2.16  -14.34   -5.17
   -3.86  -10.96   -8.67
    3.15  -14.15   -4.98
   -3.03  -14.18    5.88
   -4.22  -11.88   -5.48
  -10.45  -10.04    7.42
   -8.64   -8.07   -3.16
   -1.62  -10.33    5.89
   -9.74  -10.74    5.75
   -2.38  -14.30   -9.50
   -0.97  -10.30    6.97
   -0.03  -12.19    8.87
  -11.25   -9.14   -6.54
   -4.14   -9.74    9.29
   -3.58   -9.59    4.50
   -3.56  -14.06    1.70
   -1.39  -14.43    7.45
    0.26  -10.91   -5.76
  -10.20  -10.28   -5.69
  -13.74   -4.57    9.43
   -3.66  -11.03   -3.93
   -7.58  -10.26   -9.48
  -10.55   -7.11   -3.13
   -1.80  -12.65    9.50
   -7.55  -12.38   -4.64
    3.33  -14.11    4.13
   -9.01   -8.05    4.22
  -10.88   -9.58   -3.18
   -6.22  -12.24   -4.92
   -5.25  -13.52   -9.49
   -3.71  -10.42   -6.94
   -9.87  -10.62   -4.00
   -3.38  -13.21   -6.06
   -7.20  -10.19    5.72
    0.47  -14.49   -9.50
   -8.99   -9.30   -9.32
  -10.18  -10.29   -3.11
   -5.73  -10.36    0.97
    2.53  -13.59   -7.31
  -11.04   -7.67   -9.40
   -0.07  -10.82    8.21
   -6.88   -9.56    3.35
  -10.40  -10.11   -8.30
  -10.40   -7.95    5.32
   -7.87  -12.18    9.50
   -5.91   -9.57    2.08
[...]
POINT_DATA 2000
SCALARS radius float
LOOKUP_TABLE default
  0.500000000000000     
  0.500000000000000     
  0.500000000000000     
  0.500000000000000     
  0.500000000000000     
  0.500000000000000     
  0.500000000000000     
  0.500000000000000     
  0.500000000000000     
  0.500000000000000     
  0.500000000000000     
  0.500000000000000     
  0.500000000000000     
  0.500000000000000     
  0.500000000000000     
  0.500000000000000     
  0.500000000000000     
  0.500000000000000     
  0.500000000000000     
  0.500000000000000     
  0.500000000000000     
  0.500000000000000     
  0.500000000000000     
  0.500000000000000     
  0.500000000000000     
  0.500000000000000     
  0.500000000000000     
  0.500000000000000     
  0.500000000000000     
  0.500000000000000     
  0.500000000000000     
  0.500000000000000     
  0.500000000000000     
  0.500000000000000     
  0.500000000000000     
  0.500000000000000     
  0.500000000000000     
  0.500000000000000     
  0.500000000000000     
  0.500000000000000     
  0.500000000000000     
  0.500000000000000     
  0.500000000000000     
  0.500000000000000     
  0.500000000000000     
  0.500000000000000     
  0.500000000000000     
  0.500000000000000     
  0.500000000000000     
  0.500000000000000     
  0.500000000000000     
  0.500000000000000     
  0.500000000000000     
  0.500000000000000     
  0.500000000000000     
  0.500000000000000     
  0.500000000000000     
  0.500000000000000     
  0.500000000000000     
  0.500000000000000     
  0.500000000000000     
  0.500000000000000     
  0.500000000000000     
  0.500000000000000     
  0.500000000000000     
  0.500000000000000     
  0.500000000000000     
  0.500000000000000     
  0.500000000000000     
  0.500000000000000     
  0.500000000000000     
  0.500000000000000     
  0.500000000000000     
  0.500000000000000     
  0.500000000000000     
  0.500000000000000     
  0.500000000000000     
  0.500000000000000     
  0.500000000000000     
  0.500000000000000     
  0.500000000000000     
  0.500000000000000     
  0.500000000000000     
  0.500000000000000     
  0.500000000000000     
  0.500000000000000     
  0.500000000000000     
  0.500000000000000     
  0.500000000000000     
  0.500000000000000     
  0.500000000000000     
  0.500000000000000     
  0.500000000000000     
  0.500000000000000     
  0.500000000000000     
  0.500000000000000     
  0.500000000000000     
  0.500000000000000     
  0.500000000000000     
  0.500000000000000     
  0.500000000000000     
  0.500000000000000     
  0.500000000000000     
  0.500000000000000     
  0.500000000000000     
  0.500000000000000     
  0.500000000000000     
  0.500000000000000     
  0.500000000000000     
  0.500000000000000     
  0.500000000000000     
  0.500000000000000     
  0.500000000000000     
  0.500000000000000     
  0.500000000000000     
  0.500000000000000     
  0.500000000000000     
  0.500000000000000     
  0.500000000000000     
  0.500000000000000     
  0.500000000000000     
  0.500000000000000     
  0.500000000000000     
  0.500000000000000     
  0.500000000000000     
  0.500000000000000     
  0.500000000000000     
  0.500000000000000     
  0.500000000000000     
  0.500000000000000     
  0.500000000000000     
  0.500000000000000     
  0.500000000000000     
  0.500000000000000     
  0.500000000000000     
  0.500000000000000     
  0.500000000000000     
  0.500000000000000     
  0.500000000000000     
  0.500000000000000     
  0.500000000000000     
  0.500000000000000     
  0.500000000000000     
  0.500000000000000     
  0.500000000000000     
  0.500000000000000     
  0.500000000000000     
  0.500000000000000     
  0.500000000000000     
  0.500000000000000     
  0.500000000000000     
  0.500000000000000     
  0.500000000000000     
  0.500000000000000     
  0.500000000000000     
  0.500000000000000     
  0.500000000000000     
  0.500000000000000     
  0.500000000000000     
  0.500000000000000     
  0.500000000000000     
  0.500000000000000     
  0.500000000000000     
  0.500000000000000     
  0.500000000000000     
  0.500000000000000     
  0.500000000000000     
  0.500000000000000     
  0.500000000000000     
  0.500000000000000     
  0.500000000000000     
  0.500000000000000     
  0.500000000000000     
  0.500000000000000     
  0.500000000000000     
  0.500000000000000     
  0.500000000000000     
  0.500000000000000     
  0.500000000000000     
  0.500000000000000     
  0.500000000000000     
  0.500000000000000     
  0.500000000000000     
  0.500000000000000     
  0.500000000000000     
  0.500000000000000     
  0.500000000000000     
  0.500000000000000     
  0.500000000000000     
  0.500000000000000     
  0.500000000000000     
  0.500000000000000     
  0.500000000000000     
  0.500000000000000     
  0.500000000000000     
  0.500000000000000     
  0.500000000000000     
  0.500000000000000     
  0.500000000000000     
  0.500000000000000     
  0.500000000000000     
  0.500000000000000     
  0.500000000000000     
  0.500000000000000     
  0.500000000000000     
  0.500000000000000     
  0.500000000000000     
  0.500000000000000     
  0.500000000000000     
  0.500000000000000     
  0.500000000000000     
  0.500000000000000     
  0.500000000000000     
  0.500000000000000     
  0.500000000000000     
  0.500000000000000     
  0.500000000000000     
  0.500000000000000     
  0.500000000000000     
  0.500000000000000     
  0.500000000000000     
  0.500000000000000     
  0.500000000000000     
  0.500000000000000     
  0.500000000000000     
  0.500000000000000     
  0.500000000000000     
  0.500000000000000     
  0.500000000000000     
  0.500000000000000     
  0.500000000000000     
  0.500000000000000     
  0.500000000000000     
  0.500000000000000     
  0.500000000000000     
  0.500000000000000     
  0.500000000000000     
  0.500000000000000     
  0.500000000000000     
  0.500000000000000     
  0.500000000000000     
  0.500000000000000     
  0.500000000000000     
  0.500000000000000     
  0.500000000000000     
  0.500000000000000     
  0.500000000000000     
  0.500000000000000     
  0.500000000000000     
  0.500000000000000     
  0.500000000000000     
  0.500000000000000     
  0.500000000000000     
  0.500000000000000     
  0.500000000000000     
  0.500000000000000     
  0.500000000000000     
  0.500000000000000     
  0.500000000000000     
  0.500000000000000     
  0.500000000000000     
  0.500000000000000     
  0.500000000000000     
  0.500000000000000     
  0.500000000000000     
  0.500000000000000     
  0.500000000000000     
  0.500000000000000     
  0.500000000000000     
  0.500000000000000     
  0.500000000000000     
  0.500000000000000     
  0.500000000000000     
  0.500000000000000     
  0.500000000000000     
  0.500000000000000     
  0.500000000000000     
  0.500000000000000     
  0.500000000000000     
  0.500000000000000     
  0.500000000000000     
  0.500000000000000     
  0.500000000000000     
  0.500000000000000     
  0.500000000000000     
  0.500000000000000     
  0.500000000000000     
  0.500000000000000     
  0.500000000000000     
  0.500000000000000     
  0.500000000000000     
  0.500000000000000     
  0.500000000000000     
  0.500000000000000     
  0.500000000000000     
  0.500000000000000     
  0.500000000000000     
  0.500000000000000     
  0.500000000000000     
  0.500000000000000     
  0.500000000000000     
  0.500000000000000     
  0.500000000000000     
  0.500000000000000     
  0.500000000000000     
  0.500000000000000     
  0.500000000000000     
  0.500000000000000     
  0.500000000000000     
  0.500000000000000     
  0.500000000000000     
  0.500000000000000     
  0.500000000000000     
  0.500000000000000     
  0.500000000000000     
  0.500000000000000     
  0.500000000000000     
  0.500000000000000     
  0.500000000000000     
  0.500000000000000     
  0.500000000000000     
  0.500000000000000     
  0.500000000000000     
  0.500000000000000     
  0.500000000000000     
  0.500000000000000     
  0.500000000000000     
  0.500000000000000     
  0.500000000000000     
  0.500000000000000     
  0.500000000000000     
  0.500000000000000     
  0.500000000000000     
  0.500000000000000     
  0.500000000000000     
  0.500000000000000     
  0.500000000000000     
  0.500000000000000     
  0.500000000000000     
  0.500000000000000     
  0.500000000000000     
  0.500000000000000     
  0.500000000000000     
  0.500000000000000     
  0.500000000000000     
  0.500000000000000     
  0.500000000000000     
  0.500000000000000     
  0.500000000000000     
  0.500000000000000     
  0.500000000000000     
  0.500000000000000     
  0.500000000000000     
  0.500000000000000     
  0.500000000000000     
  0.500000000000000     
  0.500000000000000     
  0.500000000000000     
  0.500000000000000     
  0.500000000000000     
  0.500000000000000     
  0.500000000000000     
  0.500000000000000     
  0.500000000000000     
  0.500000000000000     
  0.500000000000000     
  0.500000000000000     
  0.500000000000000     
  0.500000000000000     
  0.500000000000000     
  0.500000000000000     
  0.500000000000000     
  0.500000000000000     
  0.500000000000000     
  0.500000000000000     
  0.500000000000000     
  0.500000000000000     
  0.500000000000000     
  0.500000000000000     
  0.500000000000000     
  0.500000000000000     
  0.500000000000000     
  0.500000000000000     
  0.500000000000000     
  0.500000000000000     
  0.500000000000000     
  0.500000000000000     
  0.500000000000000     
  0.500000000000000     
  0.500000000000000     
  0.500000000000000     
  0.500000000000000     
  0.500000000000000     
  0.500000000000000     
  0.500000000000000     
  0.500000000000000     
  0.500000000000000     
  0.500000000000000     
  0.500000000000000     
  0.500000000000000     
  0.500000000000000     
  0.500000000000000     
  0.500000000000000     
  0.500000000000000     
  0.500000000000000     
  0.500000000000000     
  0.500000000000000     
  0.500000000000000     
  0.500000000000000     
  0.500000000000000     
  0.500000000000000     
  0.500000000000000     
  0.500000000000000     
  0.500000000000000     
  0.500000000000000     
  0.500000000000000     
  0.500000000000000     
  0.500000000000000     
  0.500000000000000     
  0.500000000000000     
  0.500000000000000     
  0.500000000000000     
  0.500000000000000     
  0.500000000000000     
  0.500000000000000     
  0.500000000000000     
  0.500000000000000     
  0.500000000000000     
  0.500000000000000     
  0.500000000000000     
  0.500000000000000     
  0.500000000000000     
  0.500000000000000     
  0.500000000000000     
  0.500000000000000     
  0.500000000000000     
  0.500000000000000     
  0.500000000000000     
  0.500000000000000     
  0.500000000000000     
  0.500000000000000     
  0.500000000000000     
  0.500000000000000     
  0.500000000000000     
  0.500000000000000     
  0.500000000000000     
  0.500000000000000     
  0.500000000000000     
  0.500000000000000     
  0.500000000000000     
  0.500000000000000     
  0.500000000000000     
  0.500000000000000     
  0.500000000000000     
  0.500000000000000     
  0.500000000000000     
  0.500000000000000     
  0.500000000000000     
  0.500000000000000     
  0.500000000000000     
  0.500000000000000     
  0.500000000000000     
  0.500000000000000     
  0.500000000000000     
  0.500000000000000     
  0.500000000000000     
  0.500000000000000     
  0.500000000000000     
  0.500000000000000     
  0.500000000000000     
  0.500000000000000     
  0.500000000000000     
  0.500000000000000     
  0.500000000000000     
  0.500000000000000     
  0.500000000000000     
  0.500000000000000     
  0.500000000000000     
  0.500000000000000     
  0.500000000000000     
  0.500000000000000     
  0.500000000000000     
  0.500000000000000     
  0.500000000000000     
  0.500000000000000     
  0.500000000000000     
  0.500000000000000     
  0.500000000000000     
  0.500000000000000     
  0.500000000000000     
  0.500000000000000     
  0.500000000000000     
  0.500000000000000     
  0.500000000000000     
  0.500000000000000     
  0.500000000000000     
  0.500000000000000     
  0.500000000000000     
  0.500000000000000     
  0.500000000000000     
  0.500000000000000     
  0.500000000000000     
  0.500000000000000     
  0.500000000000000     
  0.500000000000000     
  0.500000000000000     
  0.500000000000000     
  0.500000000000000     
  0.500000000000000     
  0.500000000000000     
  0.500000000000000     
  0.500000000000000     
  0.500000000000000     
  0.500000000000000     
  0.500000000000000     
  0.500000000000000     
  0.500000000000000     
  0.500000000000000     
  0.500000000000000     
  0.500000000000000     
  0.500000000000000     
  0.500000000000000     
  0.500000000000000     
  0.500000000000000     
  0.500000000000000     
  0.500000000000000     
  0.500000000000000     
  0.500000000000000     
  0.500000000000000     
  0.500000000000000     
  0.500000000000000     
  0.500000000000000     
  0.500000000000000     
  0.500000000000000     
  0.500000000000000     
  0.500000000000000     
  0.500000000000000     
  0.500000000000000     
  0.500000000000000     
  0.500000000000000     
  0.500000000000000     
  0.500000000000000     
  0.500000000000000     
  0.500000000000000     
  0.500000000000000     
  0.500000000000000     
  0.500000000000000     
  0.500000000000000     
  0.500000000000000     
  0.500000000000000     
  0.500000000000000     
  0.500000000000000     
  0.500000000000000     
  0.500000000000000     
  0.500000000000000     
  0.500000000000000     
  0.500000000000000     
  0.500000000000000     
  0.500000000000000     
  0.500000000000000     
  0.500000000000000     
  0.500000000000000     
  0.500000000000000     
  0.500000000000000     
  0.500000000000000     
  0.500000000000000     
  0.500000000000000     
  0.500000000000000     
  0.500000000000000     
  0.500000000000000     
  0.500000000000000     
  0.500000000000000     
  0.500000000000000     
  0.500000000000000     
  0.500000000000000     
  0.500000000000000     
  0.500000000000000     
  0.500000000000000     
  0.500000000000000     
  0.500000000000000     
  0.500000000000000     
  0.500000000000000     
  0.500000000000000     
  0.500000000000000     
  0.500000000000000     
  0.500000000000000     
  0.500000000000000     
  0.500000000000000     
  0.500000000000000     
  0.500000000000000     
  0.500000000000000     
  0.500000000000000     
  0.500000000000000     
  0.500000000000000     
  0.500000000000000     
  0.500000000000000     
  0.500000000000000     
  0.500000000000000     
  0.500000000000000     
  0.500000000000000     
  0.500000000000000     
  0.500000000000000     
  0.500000000000000     
  0.500000000000000     
  0.500000000000000     
  0.500000000000000     
  0.500000000000000     
  0.500000000000000     
  0.500000000000000     
  0.500000000000000     
  0.500000000000000     
  0.500000000000000     
  0.500000000000000     
  0.500000000000000     
  0.500000000000000     
  0.500000000000000     
  0.500000000000000     
  0.500000000000000     
  0.500000000000000     
  0.500000000000000     
  0.500000000000000     
  0.500000000000000     
  0.500000000000000     
  0.500000000000000     
  0.500000000000000     
  0.500000000000000     
  0.500000000000000     
  0.500000000000000     
  0.500000000000000     
  0.500000000000000     
  0.500000000000000     
  0.500000000000000     
  0.500000000000000     
  0.500000000000000     
  0.500000000000000     
  0.500000000000000     
  0.500000000000000     
  0.500000000000000     
  0.500000000000000     
  0.500000000000000     
  0.500000000000000     
  0.500000000000000     
  0.500000000000000     
  0.500000000000000     
  0.500000000000000     
  0.500000000000000     
  0.500000000000000     
  0.500000000000000     
  0.500000000000000     
  0.500000000000000     
  0.500000000000000     
  0.500000000000000     
  0.500000000000000     
  0.500000000000000     
  0.500000000000000     
  0.500000000000000     
  0.500000000000000     
  0.500000000000000     
  0.500000000000000     
  0.500000000000000     
  0.500000000000000     
  0.500000000000000     
  0.500000000000000     
  0.500000000000000     
  0.500000000000000     
  0.500000000000000     
  0.500000000000000     
  0.500000000000000     
  0.500000000000000     
  0.500000000000000     
  0.500000000000000     
  0.500000000000000     
  0.500000000000000     
  0.500000000000000     
  0.500000000000000     
  0.500000000000000     
  0.500000000000000     
  0.500000000000000     
  0.500000000000000     
  0.500000000000000     
  0.500000000000000     
  0.500000000000000     
  0.500000000000000     
  0.500000000000000     
  0.500000000000000     
  0.500000000000000     
  0.500000000000000     
  0.500000000000000     
  0.500000000000000     
  0.500000000000000     
  0.500000000000000     
  0.500000000000000     
  0.500000000000000     
  0.500000000000000     
  0.500000000000000     
  0.500000000000000     
  0.500000000000000     
  0.500000000000000     
  0.500000000000000     
  0.500000000000000     
  0.500000000000000     
  0.500000000000000     
  0.500000000000000     
  0.500000000000000     
  0.500000000000000     
  0.500000000000000     
  0.500000000000000     
  0.500000000000000     
  0.500000000000000     
  0.500000000000000     
  0.500000000000000     
  0.500000000000000     
  0.500000000000000     
  0.500000000000000     
  0.500000000000000     
  0.500000000000000     
  0.500000000000000     
  0.500000000000000     
  0.500000000000000     
  0.500000000000000     
  0.500000000000000     
  0.500000000000000     
  0.500000000000000     
  0.500000000000000     
  0.500000000000000     
  0.500000000000000     
  0.500000000000000     
  0.500000000000000     
  0.500000000000000     
  0.500000000000000     
  0.500000000000000     
  0.500000000000000     
  0.500000000000000     
  0.500000000000000     
  0.500000000000000     
  0.500000000000000     
  0.500000000000000     
  0.500000000000000     
  0.500000000000000     
  0.500000000000000     
  0.500000000000000     
  0.500000000000000     
  0.500000000000000     
  0.500000000000000     
  0.500000000000000     
  0.500000000000000     
  0.500000000000000     
  0.500000000000000     
  0.500000000000000     
  0.500000000000000     
  0.500000000000000     
  0.500000000000000     
  0.500000000000000     
  0.500000000000000     
  0.500000000000000     
  0.500000000000000     
  0.500000000000000     
  0.500000000000000     
  0.500000000000000     
  0.500000000000000     
  0.500000000000000     
  0.500000000000000     
  0.500000000000000     
  0.500000000000000     
  0.500000000000000     
  0.500000000000000     
  0.500000000000000     
  0.500000000000000     
  0.500000000000000     
  0.500000000000000     
  0.500000000000000     
  0.500000000000000     
  0.500000000000000     
  0.500000000000000     
  0.500000000000000     
  0.500000000000000     
  0.500000000000000     
  0.500000000000000     
  0.500000000000000     
  0.500000000000000     
  0.500000000000000     
  0.500000000000000     
  0.500000000000000     
  0.500000000000000     
  0.500000000000000     
  0.500000000000000     
  0.500000000000000     
  0.500000000000000     
  0.500000000000000     
  0.500000000000000     
  0.500000000000000     
  0.500000000000000     
  0.500000000000000     
  0.500000000000000     
  0.500000000000000     
  0.500000000000000     
  0.500000000000000     