# vtk DataFile Version 5.1
Data.vtk
ASCII
DATASET UNSTRUCTURED_GRID
 
POINTS 2000 float
    6.56  -12.93   -1.67
   -4.57  -10.79    0.76
   -3.72  -14.01    3.06
   -0.93  -13.30   -2.39
   -8.36   -9.03    6.72
   -2.09  -10.71   -8.55
    2.71  -12.18   -5.75
  -10.62   -9.87   -8.57
   -2.34  -10.83   -1.69
   -7.19  -10.95   -0.36
  -10.42   -8.03   -2.93
   -7.89   -8.51   -7.56
    0.49  -13.71   -2.83
   -0.60  -12.62    1.86
   -8.79  -11.45   -1.45
    1.99  -11.21    0.63
   -6.05  -10.25    3.99
    1.74  -13.39    8.18
    3.83  -13.97    8.54
   -8.04  -12.07   -6.90
   -8.03  -12.07   -1.63
    1.94  -14.37    8.10
   -0.73  -11.81   -9.26
   -3.04  -14.15   -9.50
   -0.02  -13.81   -1.23
  -12.72   -6.89   -1.25
   -9.47  -10.98    6.53
   -2.04  -12.27    8.11
   -9.83   -8.50   -0.72
  -10.36   -6.52    8.17
   -3.57  -14.05   -6.92
   -4.14   -9.17   -0.03
    1.01  -12.20    9.50
   -1.32  -11.14   -1.55
   -9.34  -11.06   -6.39
    0.70  -14.48    9.02
   -3.58   -9.76    3.85
  -11.99   -7.80    5.72
   -9.81   -8.55    0.94
   -1.91  -12.28    1.65
    6.13  -12.63   -2.60
   -3.02  -14.18   -2.63
   -7.37   -8.37   -4.37
   -1.54  -13.76    0.42
   -8.65   -8.59   -6.78
    4.09  -12.53    2.16
    4.68  -12.75    6.31
   -2.09  -13.48   -6.58
   -2.48  -11.21    1.57
   -3.24  -14.12   -7.86
    5.37  -13.47   -8.72
   -8.77   -9.00    9.44
   -6.59   -9.69    6.52
   -6.30  -10.64    2.61
   -7.11   -7.65    2.53
   -2.69  -11.33    0.51
    1.25  -10.83   -3.63
  -11.28   -8.83    2.42
  -10.32  -10.16    1.26
   -1.60  -10.67   -7.67
  -11.00   -9.45   -1.72
   -9.48   -7.51   -9.14
   -1.61  -12.74    7.34
   -0.38  -14.49    2.03
    4.57  -12.85    0.46
   -6.78  -11.94    0.37
    0.26  -13.69   -8.15
   -5.11   -9.99    2.18
    5.40  -13.44   -7.68
   -2.76  -11.77   -1.86
   -9.26   -9.16    4.03
   -8.02  -12.08   -9.49
    2.37  -13.36   -6.39
   -6.48   -8.74    4.01
   -2.03   -9.46    4.88
   -9.93  -10.55   -8.30
   -0.24  -10.73    6.60
    1.08  -14.46   -6.74
   -5.37  -11.59    2.64
   -2.12   -9.70    0.45
   -4.41  -12.78    9.50
   -0.84   -9.91    5.29
   -1.36  -13.61   -4.05
    2.39  -11.23   -5.48
   -3.88  -13.16   -8.57
   -1.91  -11.97   -5.71
   -5.82  -13.28    2.00
   -1.25  -10.19   -3.65
  -10.41   -8.92    0.07
   -4.21  -11.15    5.84
   -1.49  -12.10   -0.13
   -4.38  -12.28   -9.43
   -9.74   -7.79   -2.23
   -9.17   -8.06    5.99
    4.02  -13.10    4.33
   -4.02   -9.11   -1.08
   -8.42  -10.91    2.70
   -7.82  -11.14    5.72
    3.95  -13.95   -4.90
  -10.64   -8.09   -1.30
    0.73  -14.48    2.12
    1.02  -11.28   -2.39
   -7.08   -8.06    1.59
   -6.31   -8.75    5.14
  -10.64   -8.53    1.69
    1.53  -11.46   -4.71
    3.77  -14.00    4.71
   -6.86   -9.09   -2.96
   -8.11  -12.02    8.51
   -7.18  -11.91    3.48
  -11.46   -7.10    7.35
   -6.69  -12.05   -2.06
    7.38  -12.48   -2.38
    1.39  -13.02   -7.61
    6.14  -13.13    3.82
   -0.10  -10.87   -7.11
   -9.75  -10.73    0.19
   -6.48   -8.56   -3.94
   -0.08  -14.50    6.85
   -6.91   -8.50    7.35
    1.63  -13.50    9.50
   -4.79   -9.73    9.49
   -6.89  -11.56    8.87
   -4.43  -10.05    3.11
   -5.83   -9.61    0.25
    1.48  -12.17   -2.37
    2.94  -14.20   -5.00
   -6.15  -13.13    3.17
    0.34  -13.50   -9.50
   -3.61  -12.92   -9.50
   -3.50  -12.26   -4.00
   -7.96   -8.18    2.66
    3.31  -11.71   -0.91
   -4.07   -9.92    0.63
   -5.29  -10.65   -6.02
   -2.03  -13.35    8.58
   -5.03  -13.60   -9.50
    2.91  -14.21   -7.45
    0.51  -11.00    7.49
    4.01  -13.93    0.66
   -0.48  -11.65   -1.37
   -6.02  -13.19    5.15
   -6.70  -10.60   -6.32
   -8.23   -7.60    5.69
   -7.79   -8.02    3.65
   -7.78  -11.11    8.78
   -6.77  -10.92    5.44
    1.64  -13.40   -9.50
   -0.74  -13.66   -8.06
   -7.77  -10.42   -9.50
   -1.60  -10.88    4.93
   -7.09   -8.56   -0.44
   -7.57   -8.99    3.55
   -4.32   -9.87   -2.99
   -6.26  -13.08   -9.50
   -8.01  -10.99    1.50
   -7.37  -11.45    2.13
    1.41  -11.31    4.08
   -5.60  -10.03    6.38
    5.00  -13.61    5.91
   -9.67   -8.24   -5.00
    2.55  -11.19    4.01
   -1.86  -14.38   -9.28
    5.71  -13.33    2.94
   -0.75  -10.85   -5.99
   -7.70   -9.24    1.96
   -6.95  -12.72   -4.32
   -4.95  -13.54   -8.30
    3.48  -12.16   -1.84
   -6.75   -9.50   -6.40
    4.29  -13.84    1.88
   -6.00   -9.88   -4.73
   -1.04  -11.72    8.61
   -6.12   -9.47   -3.74
   -5.64  -11.88    5.72
   -3.23   -9.71    1.23
   -5.52  -10.42    9.29
   -6.62   -9.06    8.13
   -7.82   -8.95   -2.75
   -3.84  -13.02   -1.13
  -13.18   -5.73   -8.52
    2.23  -11.39    1.59
    5.14  -13.56    0.87
   -3.15  -10.58   -6.44
   -4.34  -10.58    8.09
    2.39  -13.18   -4.32
  -11.94   -7.40   -4.76
   -2.59  -14.26   -8.61
  -12.47   -6.85    7.07
   -4.66  -13.73   -3.43
   -7.33  -11.28   -2.11
    0.19  -13.91    6.08
   -5.03  -12.83    8.72
   -8.51   -8.25   -9.50
    0.77  -12.17   -3.17
    3.25  -12.32    7.54
   -3.87   -9.56   -4.92
    3.23  -14.14   -9.50
   -4.66  -13.73   -1.38
   -2.16  -10.97   -0.71
   -2.66  -11.11    4.93
   -1.48  -12.81    9.50
    2.87  -12.68   -7.65
   -5.45  -12.74   -2.02
    0.97  -13.80    3.83
  -10.16   -8.80   -9.44
    3.05  -11.30   -4.52
   -7.31   -8.99    5.45
   -0.25  -10.29   -5.34
   -8.26   -9.41   -7.76
   -6.65   -9.69    5.17
   -1.99  -13.40   -9.17
   -2.59  -10.37    2.63
    2.27  -13.44   -7.39
   -1.22  -10.46   -4.80
   -1.67  -11.50    1.06
   -3.28  -10.54    0.66
   -3.17  -14.15    9.48
   -7.31   -9.71   -7.96
  -10.50   -9.76   -4.91
   -3.24  -10.37    4.57
   -0.95  -11.60    5.17
  -13.00   -6.42   -4.93
   -6.76  -11.33   -2.93
   -2.51  -13.36    9.50
   -3.17  -12.25    9.50
   -9.97   -7.74   -7.41
    2.46  -14.16   -4.10
   -8.06   -8.65    8.68
   -3.08  -11.55   -8.61
   -6.72  -12.82   -6.31
    2.45  -12.58    4.93
   -4.35  -11.58   -7.12
   -6.48  -10.68    6.76
  -12.73   -6.66   -8.55
   -9.30  -11.13   -3.19
   -9.57   -8.00    0.10
    1.43  -10.56    1.14
    1.17  -13.15    3.06
   -9.11   -9.51   -7.17
  -11.97   -7.26    4.89
    4.01  -13.94    5.68
  -10.66   -7.64   -8.67
   -4.72  -11.01   -8.06
    4.02  -11.89    3.47
  -12.57   -7.23    1.18
   -4.07   -9.70   -7.21
   -0.56  -10.84   -0.25
   -2.92  -11.28    9.50
   -6.90  -10.75    9.46
   -5.69  -12.39   -3.59
   -6.69   -8.47   -9.29
   -4.99  -10.81   -7.06
   -5.31  -13.49    7.57
    5.14  -13.56    9.50
    0.18  -13.18    3.20
   -3.23  -12.00   -9.50
    3.02  -14.18    5.69
   -9.67   -7.75   -6.09
   -1.30  -12.32   -1.09
   -1.85  -11.84   -8.98
    0.21  -11.91   -4.73
  -10.14   -7.83    5.85
   -2.97   -9.80    5.36
  -12.99   -6.24   -7.67
   -0.31  -14.50   -5.62
    2.44  -14.29    3.10
   -5.03   -9.26    2.90
   -5.75  -11.39   -7.38
   -5.01   -9.75   -6.88
   -8.00  -10.31   -0.30
   -4.73  -12.65    1.21
   -5.77  -12.09   -8.10
    4.46  -13.80   -7.76
    2.08  -12.50   -7.06
   -9.83   -9.17    9.43
    1.95  -13.12    4.03
    4.26  -11.85    6.44
    4.01  -12.13   -5.30
   -8.15  -11.30   -0.41
   -5.59  -12.64    6.48
   -1.64  -14.30    7.85
    1.91  -12.30   -4.13
    0.17  -11.66    9.45
   -9.48   -9.59   -1.65
   -2.03  -10.26    4.28
   -3.28  -13.41   -2.05
   -2.38  -12.06    7.19
   -2.12  -10.45   -6.53
    5.20  -13.48    3.78
   -6.72  -12.85    1.95
    0.13  -10.98    3.06
   -7.69   -9.09   -1.17
    1.58  -12.10   -6.29
   -2.93  -10.66    7.85
   -2.89  -11.67   -0.88
    3.05  -14.18   -8.44
   -3.80  -10.35    5.40
   -0.03  -13.45    6.95
   -5.86  -13.26   -7.98
    1.91  -14.37   -1.95
    4.91  -13.64    7.02
   -6.53  -11.61    2.64
   -7.32   -8.22   -2.17
    6.98  -12.25   -0.58
    2.93  -14.20    7.95
   -2.05  -11.18    5.80
   -6.58  -12.90   -8.57
   -5.09  -10.67   -0.79
   -6.80   -8.06    5.70
    0.18  -11.77   -6.00
   -5.41  -10.61    4.67
   -3.43   -9.92   -0.25
   -7.43   -9.49   -0.28
    2.75  -12.03   -8.48
    4.09  -13.41   -6.44
   -0.26  -12.66   -9.50
    1.73  -12.06   -0.73
  -10.52   -9.97    5.21
   -9.38   -8.71   -6.07
   -5.32  -12.60   -9.50
   -4.72   -8.64   -4.29
   -5.59  -13.38   -3.57
   -3.70  -13.95   -3.62
   -5.50   -8.48   -2.02
   -2.06  -10.60    0.88
  -11.77   -6.36    2.84
    5.58  -13.38    8.11
   -7.45  -11.21   -7.05
    1.18  -13.59    2.16
   -2.45  -10.05   -0.43
    1.47  -13.63   -2.45
   -4.67  -13.72    3.20
   -6.20  -11.90   -4.31
   -8.51  -10.49    8.49
   -9.96   -8.98   -3.17
   -3.86   -9.90    7.52
   -9.92  -10.57    5.74
   -9.13  -11.03   -0.57
    1.55  -12.98   -1.70
   -1.57  -10.46   -2.26
   -4.44  -12.26   -8.41
    1.89  -14.29    6.64
   -8.69  -10.59    6.01
   -4.65  -10.59   -9.48
   -6.25   -9.62   -7.29
   -0.17  -11.46    2.24
   -5.56   -9.73   -1.90
   -2.29  -12.27   -4.83
  -13.01   -6.39    7.78
   -9.49   -9.75   -3.58
   -3.51  -10.68   -8.85
  -11.03   -9.02   -5.34
  -10.50   -7.78    3.66
   -0.34  -12.63   -5.40
   -4.28   -9.11    3.54
    4.37  -13.03   -5.56
   -6.21  -13.10    9.49
   -1.11  -10.38    3.84
   -8.50   -8.51   -4.47
   -7.21  -12.58    9.42
   -6.38  -12.42    8.78
    0.73  -10.90   -4.48
    0.74  -11.63    8.23
   -0.39  -14.49    4.19
   -9.09   -8.28    1.68
   -7.83   -8.55    4.60
   -8.83  -11.49   -9.47
    1.88  -11.09   -2.90
   -0.77  -10.80    5.75
    0.34  -13.63   -6.10
    0.41  -11.18   -7.91
    6.32  -13.05   -7.68
   -8.40   -8.07    9.49
   -5.06   -9.18   -2.58
   -9.82  -10.67    3.77
    4.19  -13.87    9.47
   -1.44  -10.40    0.10
   -7.83  -10.23   -3.89
   -5.99   -8.84   -6.71
   -6.17  -12.09   -9.41
   -3.29   -9.82   -2.45
   -8.15  -10.70   -4.99
   -2.15  -12.15    6.22
   -8.24   -7.45   -5.32
   -3.20   -9.60   -8.52
   -2.33   -9.22   -0.98
    2.00  -13.01    2.52
  -11.90   -7.93   -7.15
    4.34  -12.11   -8.13
   -5.60  -11.40    9.50
    4.27  -12.91    7.23
   -4.65   -8.82   -6.97
    4.47  -12.60    8.17
   -4.01   -9.35    4.75
    1.17  -13.77    4.81
[...]
POINT_DATA 2000
SCALARS radius float
LOOKUP_TABLE default
  0.500000000000000     
  0.500000000000000     
  0.500000000000000     
  0.500000000000000     
  0.500000000000000     
  0.500000000000000     
  0.500000000000000     
  0.500000000000000     
  0.500000000000000     
  0.500000000000000     
  0.500000000000000     
  0.500000000000000     
  0.500000000000000     
  0.500000000000000     
  0.500000000000000     
  0.500000000000000     
  0.500000000000000     
  0.500000000000000     
  0.500000000000000     
  0.500000000000000     
  0.500000000000000     
  0.500000000000000     
  0.500000000000000     
  0.500000000000000     
  0.500000000000000     
  0.500000000000000     
  0.500000000000000     
  0.500000000000000     
  0.500000000000000     
  0.500000000000000     
  0.500000000000000     
  0.500000000000000     
  0.500000000000000     
  0.500000000000000     
  0.500000000000000     
  0.500000000000000     
  0.500000000000000     
  0.500000000000000     
  0.500000000000000     
  0.500000000000000     
  0.500000000000000     
  0.500000000000000     
  0.500000000000000     
  0.500000000000000     
  0.500000000000000     
  0.500000000000000     
  0.500000000000000     
  0.500000000000000     
  0.500000000000000     
  0.500000000000000     
  0.500000000000000     
  0.500000000000000     
  0.500000000000000     
  0.500000000000000     
  0.500000000000000     
  0.500000000000000     
  0.500000000000000     
  0.500000000000000     
  0.500000000000000     
  0.500000000000000     
  0.500000000000000     
  0.500000000000000     
  0.500000000000000     
  0.500000000000000     
  0.500000000000000     
  0.500000000000000     
  0.500000000000000     
  0.500000000000000     
  0.500000000000000     
  0.500000000000000     
  0.500000000000000     
  0.500000000000000     
  0.500000000000000     
  0.500000000000000     
  0.500000000000000     
  0.500000000000000     
  0.500000000000000     
  0.500000000000000     
  0.500000000000000     
  0.500000000000000     
  0.500000000000000     
  0.500000000000000     
  0.500000000000000     
  0.500000000000000     
  0.500000000000000     
  0.500000000000000     
  0.500000000000000     
  0.500000000000000     
  0.500000000000000     
  0.500000000000000     
  0.500000000000000     
  0.500000000000000     
  0.500000000000000     
  0.500000000000000     
  0.500000000000000     
  0.500000000000000     
  0.500000000000000     
  0.500000000000000     
  0.500000000000000     
  0.500000000000000     
  0.500000000000000     
  0.500000000000000     
  0.500000000000000     
  0.500000000000000     
  0.500000000000000     
  0.500000000000000     
  0.500000000000000     
  0.500000000000000     
  0.500000000000000     
  0.500000000000000     
  0.500000000000000     
  0.500000000000000     
  0.500000000000000     
  0.500000000000000     
  0.500000000000000     
  0.500000000000000     
  0.500000000000000     
  0.500000000000000     
  0.500000000000000     
  0.500000000000000     
  0.500000000000000     
  0.500000000000000     
  0.500000000000000     
  0.500000000000000     
  0.500000000000000     
  0.500000000000000     
  0.500000000000000     
  0.500000000000000     
  0.500000000000000     
  0.500000000000000     
  0.500000000000000     
  0.500000000000000     
  0.500000000000000     
  0.500000000000000     
  0.500000000000000     
  0.500000000000000     
  0.500000000000000     
  0.500000000000000     
  0.500000000000000     
  0.500000000000000     
  0.500000000000000     
  0.500000000000000     
  0.500000000000000     
  0.500000000000000     
  0.500000000000000     
  0.500000000000000     
  0.500000000000000     
  0.500000000000000     
  0.500000000000000     
  0.500000000000000     
  0.500000000000000     
  0.500000000000000     
  0.500000000000000     
  0.500000000000000     
  0.500000000000000     
  0.500000000000000     
  0.500000000000000     
  0.500000000000000     
  0.500000000000000     
  0.500000000000000     
  0.500000000000000     
  0.500000000000000     
  0.500000000000000     
  0.500000000000000     
  0.500000000000000     
  0.500000000000000     
  0.500000000000000     
  0.500000000000000     
  0.500000000000000     
  0.500000000000000     
  0.500000000000000     
  0.500000000000000     
  0.500000000000000     
  0.500000000000000     
  0.500000000000000     
  0.500000000000000     
  0.500000000000000     
  0.500000000000000     
  0.500000000000000     
  0.500000000000000     
  0.500000000000000     
  0.500000000000000     
  0.500000000000000     
  0.500000000000000     
  0.500000000000000     
  0.500000000000000     
  0.500000000000000     
  0.500000000000000     
  0.500000000000000     
  0.500000000000000     
  0.500000000000000     
  0.500000000000000     
  0.500000000000000     
  0.500000000000000     
  0.500000000000000     
  0.500000000000000     
  0.500000000000000     
  0.500000000000000     
  0.500000000000000     
  0.500000000000000     
  0.500000000000000     
  0.500000000000000     
  0.500000000000000     
  0.500000000000000     
  0.500000000000000     
  0.500000000000000     
  0.500000000000000     
  0.500000000000000     
  0.500000000000000     
  0.500000000000000     
  0.500000000000000     
  0.500000000000000     
  0.500000000000000     
  0.500000000000000     
  0.500000000000000     
  0.500000000000000     
  0.500000000000000     
  0.500000000000000     
  0.500000000000000     
  0.500000000000000     
  0.500000000000000     
  0.500000000000000     
  0.500000000000000     
  0.500000000000000     
  0.500000000000000     
  0.500000000000000     
  0.500000000000000     
  0.500000000000000     
  0.500000000000000     
  0.500000000000000     
  0.500000000000000     
  0.500000000000000     
  0.500000000000000     
  0.500000000000000     
  0.500000000000000     
  0.500000000000000     
  0.500000000000000     
  0.500000000000000     
  0.500000000000000     
  0.500000000000000     
  0.500000000000000     
  0.500000000000000     
  0.500000000000000     
  0.500000000000000     
  0.500000000000000     
  0.500000000000000     
  0.500000000000000     
  0.500000000000000     
  0.500000000000000     
  0.500000000000000     
  0.500000000000000     
  0.500000000000000     
  0.500000000000000     
  0.500000000000000     
  0.500000000000000     
  0.500000000000000     
  0.500000000000000     
  0.500000000000000     
  0.500000000000000     
  0.500000000000000     
  0.500000000000000     
  0.500000000000000     
  0.500000000000000     
  0.500000000000000     
  0.500000000000000     
  0.500000000000000     
  0.500000000000000     
  0.500000000000000     
  0.500000000000000     
  0.500000000000000     
  0.500000000000000     
  0.500000000000000     
  0.500000000000000     
  0.500000000000000     
  0.500000000000000     
  0.500000000000000     
  0.500000000000000     
  0.500000000000000     
  0.500000000000000     
  0.500000000000000     
  0.500000000000000     
  0.500000000000000     
  0.500000000000000     
  0.500000000000000     
  0.500000000000000     
  0.500000000000000     
  0.500000000000000     
  0.500000000000000     
  0.500000000000000     
  0.500000000000000     
  0.500000000000000     
  0.500000000000000     
  0.500000000000000     
  0.500000000000000     
  0.500000000000000     
  0.500000000000000     
  0.500000000000000     
  0.500000000000000     
  0.500000000000000     
  0.500000000000000     
  0.500000000000000     
  0.500000000000000     
  0.500000000000000     
  0.500000000000000     
  0.500000000000000     
  0.500000000000000     
  0.500000000000000     
  0.500000000000000     
  0.500000000000000     
  0.500000000000000     
  0.500000000000000     
  0.500000000000000     
  0.500000000000000     
  0.500000000000000     
  0.500000000000000     
  0.500000000000000     
  0.500000000000000     
  0.500000000000000     
  0.500000000000000     
  0.500000000000000     
  0.500000000000000     
  0.500000000000000     
  0.500000000000000     
  0.500000000000000     
  0.500000000000000     
  0.500000000000000     
  0.500000000000000     
  0.500000000000000     
  0.500000000000000     
  0.500000000000000     
  0.500000000000000     
  0.500000000000000     
  0.500000000000000     
  0.500000000000000     
  0.500000000000000     
  0.500000000000000     
  0.500000000000000     
  0.500000000000000     
  0.500000000000000     
  0.500000000000000     
  0.500000000000000     
  0.500000000000000     
  0.500000000000000     
  0.500000000000000     
  0.500000000000000     
  0.500000000000000     
  0.500000000000000     
  0.500000000000000     
  0.500000000000000     
  0.500000000000000     
  0.500000000000000     
  0.500000000000000     
  0.500000000000000     
  0.500000000000000     
  0.500000000000000     
  0.500000000000000     
  0.500000000000000     
  0.500000000000000     
  0.500000000000000     
  0.500000000000000     
  0.500000000000000     
  0.500000000000000     
  0.500000000000000     
  0.500000000000000     
  0.500000000000000     
  0.500000000000000     
  0.500000000000000     
  0.500000000000000     
  0.500000000000000     
  0.500000000000000     
  0.500000000000000     
  0.500000000000000     
  0.500000000000000     
  0.500000000000000     
  0.500000000000000     
  0.500000000000000     
  0.500000000000000     
  0.500000000000000     
  0.500000000000000     
  0.500000000000000     
  0.500000000000000     
  0.500000000000000     
  0.500000000000000     
  0.500000000000000     
  0.500000000000000     
  0.500000000000000     
  0.500000000000000     
  0.500000000000000     
  0.500000000000000     
  0.500000000000000     
  0.500000000000000     
  0.500000000000000     
  0.500000000000000     
  0.500000000000000     
  0.500000000000000     
  0.500000000000000     
  0.500000000000000     
  0.500000000000000     
  0.500000000000000     
  0.500000000000000     
  0.500000000000000     
  0.500000000000000     
  0.500000000000000     
  0.500000000000000     
  0.500000000000000     
  0.500000000000000     
  0.500000000000000     
  0.500000000000000     
  0.500000000000000     
  0.500000000000000     
  0.500000000000000     
  0.500000000000000     
  0.500000000000000     
  0.500000000000000     
  0.500000000000000     
  0.500000000000000     
  0.500000000000000     
  0.500000000000000     
  0.500000000000000     
  0.500000000000000     
  0.500000000000000     
  0.500000000000000     
  0.500000000000000     
  0.500000000000000     
  0.500000000000000     
  0.500000000000000     
  0.500000000000000     
  0.500000000000000     
  0.500000000000000     
  0.500000000000000     
  0.500000000000000     
  0.500000000000000     
  0.500000000000000     
  0.500000000000000     
  0.500000000000000     
  0.500000000000000     
  0.500000000000000     
  0.500000000000000     
  0.500000000000000     
  0.500000000000000     
  0.500000000000000     
  0.500000000000000     
  0.500000000000000     
  0.500000000000000     
  0.500000000000000     
  0.500000000000000     
  0.500000000000000     
  0.500000000000000     
  0.500000000000000     
  0.500000000000000     
  0.500000000000000     
  0.500000000000000     
  0.500000000000000     
  0.500000000000000     
  0.500000000000000     
  0.500000000000000     
  0.500000000000000     
  0.500000000000000     
  0.500000000000000     
  0.500000000000000     
  0.500000000000000     
  0.500000000000000     
  0.500000000000000     
  0.500000000000000     
  0.500000000000000     
  0.500000000000000     
  0.500000000000000     
  0.500000000000000     
  0.500000000000000     
  0.500000000000000     
  0.500000000000000     
  0.500000000000000     
  0.500000000000000     
  0.500000000000000     
  0.500000000000000     
  0.500000000000000     
  0.500000000000000     
  0.500000000000000     
  0.500000000000000     
  0.500000000000000     
  0.500000000000000     
  0.500000000000000     
  0.500000000000000     
  0.500000000000000     
  0.500000000000000     
  0.500000000000000     
  0.500000000000000     
  0.500000000000000     
  0.500000000000000     
  0.500000000000000     
  0.500000000000000     
  0.500000000000000     
  0.500000000000000     
  0.500000000000000     
  0.500000000000000     
  0.500000000000000     
  0.500000000000000     
  0.500000000000000     
  0.500000000000000     
  0.500000000000000     
  0.500000000000000     
  0.500000000000000     
  0.500000000000000     
  0.500000000000000     
  0.500000000000000     
  0.500000000000000     
  0.500000000000000     
  0.500000000000000     
  0.500000000000000     
  0.500000000000000     
  0.500000000000000     
  0.500000000000000     
  0.500000000000000     
  0.500000000000000     
  0.500000000000000     
  0.500000000000000     
  0.500000000000000     
  0.500000000000000     
  0.500000000000000     
  0.500000000000000     
  0.500000000000000     
  0.500000000000000     
  0.500000000000000     
  0.500000000000000     
  0.500000000000000     
  0.500000000000000     
  0.500000000000000     
  0.500000000000000     
  0.500000000000000     
  0.500000000000000     
  0.500000000000000     
  0.500000000000000     
  0.500000000000000     
  0.500000000000000     
  0.500000000000000     
  0.500000000000000     
  0.500000000000000     
  0.500000000000000     
  0.500000000000000     
  0.500000000000000     
  0.500000000000000     
  0.500000000000000     
  0.500000000000000     
  0.500000000000000     
  0.500000000000000     
  0.500000000000000     
  0.500000000000000     
  0.500000000000000     
  0.500000000000000     
  0.500000000000000     
  0.500000000000000     
  0.500000000000000     
  0.500000000000000     
  0.500000000000000     
  0.500000000000000     
  0.500000000000000     
  0.500000000000000     
  0.500000000000000     
  0.500000000000000     
  0.500000000000000     
  0.500000000000000     
  0.500000000000000     
  0.500000000000000     
  0.500000000000000     
  0.500000000000000     
  0.500000000000000     
  0.500000000000000     
  0.500000000000000     
  0.500000000000000     
  0.500000000000000     
  0.500000000000000     
  0.500000000000000     
  0.500000000000000     
  0.500000000000000     
  0.500000000000000     
  0.500000000000000     
  0.500000000000000     
  0.500000000000000     
  0.500000000000000     
  0.500000000000000     
  0.500000000000000     
  0.500000000000000     
  0.500000000000000     
  0.500000000000000     
  0.500000000000000     
  0.500000000000000     
  0.500000000000000     
  0.500000000000000     
  0.500000000000000     
  0.500000000000000     
  0.500000000000000     
  0.500000000000000     
  0.500000000000000     
  0.500000000000000     
  0.500000000000000     
  0.500000000000000     
  0.500000000000000     
  0.500000000000000     
  0.500000000000000     
  0.500000000000000     
  0.500000000000000     
  0.500000000000000     
  0.500000000000000     
  0.500000000000000     
  0.500000000000000     
  0.500000000000000     
  0.500000000000000     
  0.500000000000000     
  0.500000000000000     
  0.500000000000000     
  0.500000000000000     
  0.500000000000000     
  0.500000000000000     
  0.500000000000000     
  0.500000000000000     
  0.500000000000000     
  0.500000000000000     
  0.500000000000000     
  0.500000000000000     
  0.500000000000000     
  0.500000000000000     
  0.500000000000000     
  0.500000000000000     
  0.500000000000000     
  0.500000000000000     
  0.500000000000000     
  0.500000000000000     
  0.500000000000000     
  0.500000000000000     
  0.500000000000000     
  0.500000000000000     
  0.500000000000000     
  0.500000000000000     
  0.500000000000000     
  0.500000000000000     
  0.500000000000000     
  0.500000000000000     
  0.500000000000000     
  0.500000000000000     
  0.500000000000000     
  0.500000000000000     
  0.500000000000000     
  0.500000000000000     
  0.500000000000000     
  0.500000000000000     
  0.500000000000000     
  0.500000000000000     
  0.500000000000000     
  0.500000000000000     
  0.500000000000000     
  0.500000000000000     
  0.500000000000000     
  0.500000000000000     
  0.500000000000000     
  0.500000000000000     
  0.500000000000000     
  0.500000000000000     
  0.500000000000000     
  0.500000000000000     
  0.500000000000000     
  0.500000000000000     
  0.500000000000000     
  0.500000000000000     
  0.500000000000000     
  0.500000000000000     
  0.500000000000000     
  0.500000000000000     
  0.500000000000000     
  0.500000000000000     
  0.500000000000000     
  0.500000000000000     
  0.500000000000000     
  0.500000000000000     
  0.500000000000000     
  0.500000000000000     
  0.500000000000000     
  0.500000000000000     
  0.500000000000000     
  0.500000000000000     
  0.500000000000000     
  0.500000000000000     
  0.500000000000000     
  0.500000000000000     
  0.500000000000000     
  0.500000000000000     
  0.500000000000000     
  0.500000000000000     
  0.500000000000000     
  0.500000000000000     
  0.500000000000000     
  0.500000000000000     
  0.500000000000000     
  0.500000000000000     
  0.500000000000000     
  0.500000000000000     
  0.500000000000000     
  0.500000000000000     
  0.500000000000000     
  0.500000000000000     
  0.500000000000000     
  0.500000000000000     
  0.500000000000000     
  0.500000000000000     
  0.500000000000000     
  0.500000000000000     
  0.500000000000000     
  0.500000000000000     
  0.500000000000000     
  0.500000000000000     
  0.500000000000000     
  0.500000000000000     
  0.500000000000000     
  0.500000000000000     
  0.500000000000000     
  0.500000000000000     
  0.500000000000000     
  0.500000000000000     
  0.500000000000000     
  0.500000000000000     
  0.500000000000000     
  0.500000000000000     
  0.500000000000000     
  0.500000000000000     
  0.500000000000000     
  0.500000000000000     
  0.500000000000000     
  0.500000000000000     
  0.500000000000000     
  0.500000000000000     
  0.500000000000000     
  0.500000000000000     
  0.500000000000000     
  0.500000000000000     
  0.500000000000000     
  0.500000000000000     
  0.500000000000000     
  0.500000000000000     
  0.500000000000000     
  0.500000000000000     
  0.500000000000000     
  0.500000000000000     
  0.500000000000000     
  0.500000000000000     
  0.500000000000000     
  0.500000000000000     
  0.500000000000000     
  0.500000000000000     
  0.500000000000000     
  0.500000000000000     
  0.500000000000000     
  0.500000000000000     
  0.500000000000000     
  0.500000000000000     
  0.500000000000000     
  0.500000000000000     
  0.500000000000000     
  0.500000000000000     
  0.500000000000000     
  0.500000000000000     
  0.500000000000000     
  0.500000000000000     
  0.500000000000000     
  0.500000000000000     
  0.500000000000000     
  0.500000000000000     
  0.500000000000000     
  0.500000000000000     
  0.500000000000000     
  0.500000000000000     
  0.500000000000000     
  0.500000000000000     
  0.500000000000000     
  0.500000000000000     
  0.500000000000000     
  0.500000000000000     
  0.500000000000000     
  0.500000000000000     
  0.500000000000000     
  0.500000000000000     
  0.500000000000000     
  0.500000000000000     
  0.500000000000000     
  0.500000000000000     
  0.500000000000000     
  0.500000000000000     
  0.500000000000000     
  0.500000000000000     
  0.500000000000000     
  0.500000000000000     
  0.500000000000000     
  0.500000000000000     
  0.500000000000000     
  0.500000000000000     
  0.500000000000000     
  0.500000000000000     
  0.500000000000000     
  0.500000000000000     