# vtk DataFile Version 5.1
Data.vtk
ASCII
DATASET UNSTRUCTURED_GRID
 
POINTS 2000 float
    7.27  -12.55   -1.32
   -4.89  -10.84    0.85
   -3.18  -14.12    3.14
   -0.72  -13.25   -2.32
   -8.39   -9.22    6.84
   -2.34  -10.90   -8.68
    2.31  -12.04   -5.58
  -10.32  -10.19   -8.52
   -2.67  -10.72   -1.69
   -7.33  -11.02   -0.37
  -10.96   -7.90   -3.01
   -8.33   -8.38   -7.86
    0.64  -13.52   -2.90
   -0.75  -12.54    1.73
   -8.61  -11.66   -1.49
    1.47  -11.09    0.43
   -6.16  -10.41    4.10
    2.09  -13.36    8.15
    4.13  -13.46    8.59
   -7.75  -12.26   -6.94
   -7.72  -12.20   -1.67
    2.47  -14.29    8.08
   -0.37  -11.81   -9.48
   -2.38  -14.30   -9.50
    0.16  -13.69   -1.28
  -12.69   -6.76   -1.46
   -9.09  -11.28    6.58
   -1.71  -12.39    8.08
  -10.06   -8.41   -0.74
  -10.60   -6.58    8.45
   -3.04  -14.18   -6.95
   -4.88   -8.99    0.14
    1.37  -12.07    9.50
   -1.70  -10.87   -1.51
   -9.05  -11.33   -6.41
    1.54  -14.42    9.02
   -4.07   -9.59    4.13
  -11.93   -8.24    5.82
   -9.87   -8.53    0.84
   -1.87  -12.29    1.69
    5.84  -12.37   -2.18
   -2.49  -14.28   -2.62
   -8.05   -8.00   -4.66
   -1.27  -13.74    0.31
   -8.64   -8.76   -6.99
    4.21  -12.35    2.19
    4.79  -12.72    5.86
   -1.87  -13.60   -6.49
   -2.67  -11.02    1.68
   -2.72  -14.24   -7.89
    5.30  -13.00   -8.64
   -8.72   -9.24    9.40
   -6.63   -9.64    6.67
   -6.38  -10.74    2.68
   -7.76   -7.29    2.88
   -2.92  -11.13    0.38
    0.65  -10.51   -3.42
  -11.12   -9.13    2.41
  -10.02  -10.38    1.32
   -1.96  -10.56   -7.55
  -10.75   -9.58   -1.66
   -9.56   -7.42   -9.26
   -1.32  -12.89    7.30
    0.24  -14.50    2.07
    4.45  -12.87    0.33
   -6.71  -12.08    0.44
    0.70  -13.74   -8.04
   -5.55   -9.92    2.27
    5.77  -13.30   -7.30
   -2.91  -11.69   -1.68
   -9.45   -8.73    4.07
   -7.40  -12.47   -9.48
    2.48  -13.28   -6.29
   -7.12   -8.58    4.29
   -2.65   -9.32    4.65
   -9.51  -10.73   -8.26
   -0.88  -10.66    6.83
    1.63  -14.41   -6.61
   -5.31  -11.62    2.66
   -2.82   -9.57    0.33
   -3.83  -12.99    9.50
   -1.47   -9.97    5.15
   -1.24  -13.48   -3.98
    1.79  -11.05   -5.18
   -3.52  -13.31   -8.60
   -2.01  -11.78   -5.55
   -5.33  -13.48    2.09
   -1.65  -10.07   -3.51
  -10.39   -8.98    0.01
   -4.16  -11.24    5.78
   -1.48  -12.01    0.02
   -3.86  -12.45   -9.43
  -10.17   -7.92   -2.39
   -9.72   -8.00    6.28
    3.81  -13.10    4.21
   -4.36   -9.17   -1.28
   -8.37  -10.86    2.67
   -7.86  -11.21    5.76
    4.30  -13.85   -4.65
  -11.10   -7.93   -1.26
    1.26  -14.45    2.03
    0.54  -10.98   -2.36
   -7.83   -7.94    1.71
   -6.78   -8.76    5.24
  -10.77   -8.57    1.67
    0.97  -11.26   -4.62
    3.99  -13.94    4.73
   -7.02   -9.13   -2.88
   -7.57  -12.37    8.43
   -6.92  -12.14    3.48
  -11.52   -7.06    7.35
   -6.60  -12.11   -2.12
    7.55  -12.38   -2.47
    1.50  -13.01   -7.34
    6.29  -12.83    3.77
   -0.39  -10.92   -7.21
   -9.50  -10.95    0.15
   -7.06   -8.31   -4.29
    0.64  -14.49    6.75
   -7.52   -8.48    7.42
    2.23  -13.42    9.50
   -4.70   -9.76    9.50
   -6.53  -11.88    8.85
   -4.94   -9.96    3.39
   -6.54   -9.64    0.14
    1.09  -11.81   -2.32
    3.25  -14.13   -4.85
   -5.76  -13.30    3.18
    0.64  -13.53   -9.50
   -3.13  -13.13   -9.50
   -3.59  -12.15   -3.96
   -8.46   -7.99    2.69
    3.02  -11.68   -0.84
   -4.70   -9.89    0.61
   -5.43  -10.76   -6.09
   -1.65  -13.31    8.45
   -4.32  -13.84   -9.37
    3.25  -14.09   -7.55
   -0.15  -10.86    7.70
    4.28  -13.83    0.64
   -0.89  -11.45   -1.49
   -5.45  -13.43    5.17
   -6.73  -10.63   -6.31
   -9.60   -7.01    6.16
   -8.26   -8.00    3.67
   -7.42  -11.41    8.76
   -6.71  -11.16    5.56
    1.90  -13.37   -9.50
   -0.30  -13.79   -8.06
   -7.51  -10.64   -9.50
   -1.69  -10.91    4.86
   -7.76   -8.41   -0.33
   -7.98   -8.96    3.69
   -4.82   -9.90   -3.07
   -5.61  -13.37   -9.50
   -7.85  -11.11    1.43
   -7.17  -11.48    2.09
    0.87  -11.10    4.32
   -5.75  -10.09    6.52
    5.50  -13.42    5.78
   -9.83   -8.05   -5.19
    1.92  -10.84    3.88
   -1.16  -14.45   -9.14
    6.01  -13.13    2.82
   -0.98  -10.94   -6.13
   -8.00   -9.25    1.96
   -6.71  -12.85   -4.34
   -4.55  -13.61   -8.12
    3.20  -12.02   -1.86
   -7.07   -9.44   -6.37
    4.55  -13.77    1.64
   -6.24   -9.93   -4.73
   -1.06  -11.63    8.49
   -6.58   -9.27   -3.78
   -5.62  -12.10    5.85
   -3.83   -9.57    1.02
   -5.46  -10.54    9.50
   -6.84   -8.95    8.05
   -8.23   -8.95   -2.89
   -3.46  -13.14   -0.99
  -13.18   -6.01   -8.61
    1.84  -11.18    1.39
    5.22  -13.53    0.81
   -3.40  -10.60   -6.46
   -4.20  -10.84    8.15
    2.39  -13.02   -4.25
  -12.26   -7.41   -4.80
   -2.00  -14.36   -8.58
  -12.47   -7.12    7.03
   -4.18  -13.89   -3.32
   -7.37  -11.43   -2.22
    0.58  -13.84    5.99
   -4.41  -12.94    8.68
   -8.74   -8.01   -9.50
    0.41  -11.81   -3.07
    3.23  -12.21    7.30
   -4.43   -9.32   -4.91
    3.70  -14.02   -9.50
   -4.12  -13.90   -1.37
   -2.65  -10.90   -0.61
   -2.73  -11.07    4.75
   -1.14  -12.79    9.50
    2.84  -12.59   -7.52
   -5.31  -12.99   -2.01
    1.36  -13.75    3.84
  -10.07   -9.08   -9.43
    2.55  -11.45   -4.67
   -7.67   -9.07    5.57
   -0.83  -10.16   -5.52
   -8.39   -9.36   -8.03
   -6.86   -9.75    5.13
   -1.60  -13.55   -9.01
   -3.11  -10.06    2.60
    2.35  -13.54   -7.32
   -1.75  -10.21   -4.99
   -1.64  -11.53    1.04
   -3.59  -10.40    0.52
   -2.43  -14.29    9.50
   -7.26   -9.85   -8.02
  -10.41  -10.09   -4.88
   -3.38  -10.33    4.54
   -1.06  -11.65    5.11
  -13.13   -6.16   -5.30
   -6.76  -11.49   -3.01
   -1.91  -13.44    9.48
   -2.86  -12.43    9.50
  -10.33   -7.52   -7.68
    2.67  -13.97   -4.05
   -8.05   -8.54    8.87
   -3.06  -11.60   -8.55
   -6.39  -13.01   -6.12
    2.19  -12.51    5.01
   -4.35  -11.65   -7.12
   -6.45  -10.90    6.72
  -12.41   -7.05   -8.61
   -9.08  -11.30   -3.21
  -10.01   -7.83    0.12
    0.55  -10.18    1.42
    1.31  -13.16    3.04
   -9.15   -9.80   -7.37
  -12.13   -7.67    5.02
    4.36  -13.83    5.65
  -10.64   -7.85   -8.80
   -4.74  -11.12   -8.25
    3.61  -11.70    3.45
  -12.48   -7.37    1.14
   -4.46   -9.70   -7.38
   -0.99  -10.72   -0.26
   -2.73  -11.44    9.50
   -6.68  -10.84    9.30
   -5.51  -12.55   -3.66
   -6.49   -8.58   -9.29
   -5.25  -10.64   -7.13
   -4.63  -13.74    7.57
    5.72  -13.32    9.25
    0.34  -13.11    3.27
   -2.79  -12.19   -9.47
    3.31  -14.12    5.72
  -10.11   -7.82   -6.39
   -1.38  -12.15   -0.97
   -1.66  -11.99   -8.91
   -0.01  -11.77   -4.70
  -10.70   -7.86    5.95
   -3.32   -9.68    5.30
  -12.91   -6.60   -7.84
    0.12  -14.50   -5.64
    2.80  -14.23    3.01
   -5.74   -9.13    2.86
   -5.70  -11.47   -7.46
   -5.36   -9.58   -6.94
   -8.07  -10.34   -0.43
   -4.58  -12.69    1.28
   -5.63  -12.34   -8.07
    4.76  -13.70   -7.64
    2.03  -12.20   -7.08
   -9.69   -9.55    9.48
    2.05  -13.02    4.05
    4.26  -11.90    6.05
    3.82  -12.16   -5.29
   -8.07  -11.64   -0.62
   -5.31  -12.81    6.48
   -1.06  -14.45    7.82
    1.54  -12.28   -3.87
    0.23  -11.75    9.47
   -9.43   -9.65   -1.65
   -2.31  -10.20    4.34
   -3.05  -13.36   -1.87
   -2.26  -12.10    7.27
   -2.34  -10.05   -6.35
    5.47  -13.43    3.63
   -6.24  -13.09    1.97
   -0.49  -10.78    3.39
   -8.02   -9.01   -1.22
    1.26  -12.03   -6.23
   -3.00  -10.56    8.00
   -2.87  -11.87   -0.69
    3.61  -14.04   -8.48
   -4.11  -10.34    5.35
    0.28  -13.50    6.88
   -5.58  -13.38   -7.71
    2.27  -14.32   -1.77
    5.05  -13.59    6.67
   -6.43  -11.75    2.70
   -8.56   -7.60   -1.81
    6.72  -11.86   -0.44
    3.44  -14.09    7.93
   -2.25  -10.86    5.69
   -6.23  -13.09   -8.54
   -5.23  -10.59   -0.70
   -7.72   -8.08    6.08
   -0.12  -11.62   -5.90
   -5.49  -10.71    4.85
   -4.07   -9.70   -0.15
   -7.71   -9.41   -0.35
    2.55  -11.84   -8.36
    4.07  -13.45   -6.39
    0.21  -12.62   -9.50
    1.64  -12.02   -0.81
  -10.17  -10.32    5.29
   -9.47   -8.75   -6.43
   -4.84  -12.64   -9.50
   -5.36   -8.69   -4.20
   -5.28  -13.50   -3.47
   -3.28  -13.79   -3.80
   -6.17   -8.54   -2.14
   -2.64  -10.32    0.97
  -12.25   -5.74    2.94
    5.98  -13.21    7.82
   -7.38  -11.27   -7.04
    1.23  -13.45    2.08
   -3.20  -10.08   -0.43
    1.52  -13.68   -2.18
   -4.17  -13.89    3.24
   -6.13  -12.04   -4.26
   -8.17  -10.78    8.55
  -10.19   -9.01   -3.34
   -4.04   -9.56    7.32
   -9.52  -10.93    5.75
   -9.00  -11.28   -0.65
    1.34  -12.50   -1.62
   -2.09  -10.12   -2.25
   -4.16  -12.20   -8.05
    2.48  -14.28    6.59
   -8.53  -10.58    6.14
   -4.32  -10.87   -9.42
   -6.57   -9.76   -7.17
   -0.55  -11.11    2.43
   -5.93   -9.83   -1.64
   -2.30  -12.25   -4.71
  -12.75   -6.64    7.86
   -9.56   -9.77   -3.75
   -3.55  -10.76   -8.80
  -10.96   -9.35   -5.25
  -10.76   -7.99    3.81
   -0.30  -12.58   -5.26
   -5.10   -8.99    3.61
    4.38  -12.99   -5.30
   -5.58  -13.38    9.47
   -1.39  -10.33    3.96
   -8.97   -8.48   -4.55
   -6.74  -12.84    9.45
   -5.92  -12.67    8.85
    0.21  -10.68   -4.32
    0.40  -11.53    8.20
    0.27  -14.50    4.32
   -9.46   -8.26    1.71
   -8.26   -8.47    5.02
   -8.24  -11.93   -9.50
    1.37  -10.99   -2.92
   -1.20  -10.83    5.81
    0.36  -13.64   -6.12
    0.15  -11.28   -7.98
    6.72  -12.85   -7.33
   -8.75   -8.15    9.48
   -5.59   -9.30   -2.47
   -9.44  -11.00    3.80
    4.75  -13.70    9.50
   -2.05  -10.17    0.12
   -7.93  -10.19   -3.96
   -6.36   -8.71   -6.62
   -5.83  -12.23   -9.38
   -3.74   -9.66   -2.37
   -8.18  -10.77   -5.08
   -2.02  -12.20    6.29
   -9.09   -7.34   -5.43
   -3.86   -9.52   -8.59
   -3.13   -9.18   -0.87
    2.04  -12.89    2.41
  -11.81   -8.19   -7.13
    3.64  -11.57   -7.68
   -5.33  -11.53    9.49
    4.31  -12.93    6.76
   -5.43   -8.59   -7.07
    4.63  -12.74    7.75
   -4.69   -9.05    4.69
    1.30  -13.48    4.83
[...]
POINT_DATA 2000
SCALARS radius float
LOOKUP_TABLE default
  0.500000000000000     
  0.500000000000000     
  0.500000000000000     
  0.500000000000000     
  0.500000000000000     
  0.500000000000000     
  0.500000000000000     
  0.500000000000000     
  0.500000000000000     
  0.500000000000000     
  0.500000000000000     
  0.500000000000000     
  0.500000000000000     
  0.500000000000000     
  0.500000000000000     
  0.500000000000000     
  0.500000000000000     
  0.500000000000000     
  0.500000000000000     
  0.500000000000000     
  0.500000000000000     
  0.500000000000000     
  0.500000000000000     
  0.500000000000000     
  0.500000000000000     
  0.500000000000000     
  0.500000000000000     
  0.500000000000000     
  0.500000000000000     
  0.500000000000000     
  0.500000000000000     
  0.500000000000000     
  0.500000000000000     
  0.500000000000000     
  0.500000000000000     
  0.500000000000000     
  0.500000000000000     
  0.500000000000000     
  0.500000000000000     
  0.500000000000000     
  0.500000000000000     
  0.500000000000000     
  0.500000000000000     
  0.500000000000000     
  0.500000000000000     
  0.500000000000000     
  0.500000000000000     
  0.500000000000000     
  0.500000000000000     
  0.500000000000000     
  0.500000000000000     
  0.500000000000000     
  0.500000000000000     
  0.500000000000000     
  0.500000000000000     
  0.500000000000000     
  0.500000000000000     
  0.500000000000000     
  0.500000000000000     
  0.500000000000000     
  0.500000000000000     
  0.500000000000000     
  0.500000000000000     
  0.500000000000000     
  0.500000000000000     
  0.500000000000000     
  0.500000000000000     
  0.500000000000000     
  0.500000000000000     
  0.500000000000000     
  0.500000000000000     
  0.500000000000000     
  0.500000000000000     
  0.500000000000000     
  0.500000000000000     
  0.500000000000000     
  0.500000000000000     
  0.500000000000000     
  0.500000000000000     
  0.500000000000000     
  0.500000000000000     
  0.500000000000000     
  0.500000000000000     
  0.500000000000000     
  0.500000000000000     
  0.500000000000000     
  0.500000000000000     
  0.500000000000000     
  0.500000000000000     
  0.500000000000000     
  0.500000000000000     
  0.500000000000000     
  0.500000000000000     
  0.500000000000000     
  0.500000000000000     
  0.500000000000000     
  0.500000000000000     
  0.500000000000000     
  0.500000000000000     
  0.500000000000000     
  0.500000000000000     
  0.500000000000000     
  0.500000000000000     
  0.500000000000000     
  0.500000000000000     
  0.500000000000000     
  0.500000000000000     
  0.500000000000000     
  0.500000000000000     
  0.500000000000000     
  0.500000000000000     
  0.500000000000000     
  0.500000000000000     
  0.500000000000000     
  0.500000000000000     
  0.500000000000000     
  0.500000000000000     
  0.500000000000000     
  0.500000000000000     
  0.500000000000000     
  0.500000000000000     
  0.500000000000000     
  0.500000000000000     
  0.500000000000000     
  0.500000000000000     
  0.500000000000000     
  0.500000000000000     
  0.500000000000000     
  0.500000000000000     
  0.500000000000000     
  0.500000000000000     
  0.500000000000000     
  0.500000000000000     
  0.500000000000000     
  0.500000000000000     
  0.500000000000000     
  0.500000000000000     
  0.500000000000000     
  0.500000000000000     
  0.500000000000000     
  0.500000000000000     
  0.500000000000000     
  0.500000000000000     
  0.500000000000000     
  0.500000000000000     
  0.500000000000000     
  0.500000000000000     
  0.500000000000000     
  0.500000000000000     
  0.500000000000000     
  0.500000000000000     
  0.500000000000000     
  0.500000000000000     
  0.500000000000000     
  0.500000000000000     
  0.500000000000000     
  0.500000000000000     
  0.500000000000000     
  0.500000000000000     
  0.500000000000000     
  0.500000000000000     
  0.500000000000000     
  0.500000000000000     
  0.500000000000000     
  0.500000000000000     
  0.500000000000000     
  0.500000000000000     
  0.500000000000000     
  0.500000000000000     
  0.500000000000000     
  0.500000000000000     
  0.500000000000000     
  0.500000000000000     
  0.500000000000000     
  0.500000000000000     
  0.500000000000000     
  0.500000000000000     
  0.500000000000000     
  0.500000000000000     
  0.500000000000000     
  0.500000000000000     
  0.500000000000000     
  0.500000000000000     
  0.500000000000000     
  0.500000000000000     
  0.500000000000000     
  0.500000000000000     
  0.500000000000000     
  0.500000000000000     
  0.500000000000000     
  0.500000000000000     
  0.500000000000000     
  0.500000000000000     
  0.500000000000000     
  0.500000000000000     
  0.500000000000000     
  0.500000000000000     
  0.500000000000000     
  0.500000000000000     
  0.500000000000000     
  0.500000000000000     
  0.500000000000000     
  0.500000000000000     
  0.500000000000000     
  0.500000000000000     
  0.500000000000000     
  0.500000000000000     
  0.500000000000000     
  0.500000000000000     
  0.500000000000000     
  0.500000000000000     
  0.500000000000000     
  0.500000000000000     
  0.500000000000000     
  0.500000000000000     
  0.500000000000000     
  0.500000000000000     
  0.500000000000000     
  0.500000000000000     
  0.500000000000000     
  0.500000000000000     
  0.500000000000000     
  0.500000000000000     
  0.500000000000000     
  0.500000000000000     
  0.500000000000000     
  0.500000000000000     
  0.500000000000000     
  0.500000000000000     
  0.500000000000000     
  0.500000000000000     
  0.500000000000000     
  0.500000000000000     
  0.500000000000000     
  0.500000000000000     
  0.500000000000000     
  0.500000000000000     
  0.500000000000000     
  0.500000000000000     
  0.500000000000000     
  0.500000000000000     
  0.500000000000000     
  0.500000000000000     
  0.500000000000000     
  0.500000000000000     
  0.500000000000000     
  0.500000000000000     
  0.500000000000000     
  0.500000000000000     
  0.500000000000000     
  0.500000000000000     
  0.500000000000000     
  0.500000000000000     
  0.500000000000000     
  0.500000000000000     
  0.500000000000000     
  0.500000000000000     
  0.500000000000000     
  0.500000000000000     
  0.500000000000000     
  0.500000000000000     
  0.500000000000000     
  0.500000000000000     
  0.500000000000000     
  0.500000000000000     
  0.500000000000000     
  0.500000000000000     
  0.500000000000000     
  0.500000000000000     
  0.500000000000000     
  0.500000000000000     
  0.500000000000000     
  0.500000000000000     
  0.500000000000000     
  0.500000000000000     
  0.500000000000000     
  0.500000000000000     
  0.500000000000000     
  0.500000000000000     
  0.500000000000000     
  0.500000000000000     
  0.500000000000000     
  0.500000000000000     
  0.500000000000000     
  0.500000000000000     
  0.500000000000000     
  0.500000000000000     
  0.500000000000000     
  0.500000000000000     
  0.500000000000000     
  0.500000000000000     
  0.500000000000000     
  0.500000000000000     
  0.500000000000000     
  0.500000000000000     
  0.500000000000000     
  0.500000000000000     
  0.500000000000000     
  0.500000000000000     
  0.500000000000000     
  0.500000000000000     
  0.500000000000000     
  0.500000000000000     
  0.500000000000000     
  0.500000000000000     
  0.500000000000000     
  0.500000000000000     
  0.500000000000000     
  0.500000000000000     
  0.500000000000000     
  0.500000000000000     
  0.500000000000000     
  0.500000000000000     
  0.500000000000000     
  0.500000000000000     
  0.500000000000000     
  0.500000000000000     
  0.500000000000000     
  0.500000000000000     
  0.500000000000000     
  0.500000000000000     
  0.500000000000000     
  0.500000000000000     
  0.500000000000000     
  0.500000000000000     
  0.500000000000000     
  0.500000000000000     
  0.500000000000000     
  0.500000000000000     
  0.500000000000000     
  0.500000000000000     
  0.500000000000000     
  0.500000000000000     
  0.500000000000000     
  0.500000000000000     
  0.500000000000000     
  0.500000000000000     
  0.500000000000000     
  0.500000000000000     
  0.500000000000000     
  0.500000000000000     
  0.500000000000000     
  0.500000000000000     
  0.500000000000000     
  0.500000000000000     
  0.500000000000000     
  0.500000000000000     
  0.500000000000000     
  0.500000000000000     
  0.500000000000000     
  0.500000000000000     
  0.500000000000000     
  0.500000000000000     
  0.500000000000000     
  0.500000000000000     
  0.500000000000000     
  0.500000000000000     
  0.500000000000000     
  0.500000000000000     
  0.500000000000000     
  0.500000000000000     
  0.500000000000000     
  0.500000000000000     
  0.500000000000000     
  0.500000000000000     
  0.500000000000000     
  0.500000000000000     
  0.500000000000000     
  0.500000000000000     
  0.500000000000000     
  0.500000000000000     
  0.500000000000000     
  0.500000000000000     
  0.500000000000000     
  0.500000000000000     
  0.500000000000000     
  0.500000000000000     
  0.500000000000000     
  0.500000000000000     
  0.500000000000000     
  0.500000000000000     
  0.500000000000000     
  0.500000000000000     
  0.500000000000000     
  0.500000000000000     
  0.500000000000000     
  0.500000000000000     
  0.500000000000000     
  0.500000000000000     
  0.500000000000000     
  0.500000000000000     
  0.500000000000000     
  0.500000000000000     
  0.500000000000000     
  0.500000000000000     
  0.500000000000000     
  0.500000000000000     
  0.500000000000000     
  0.500000000000000     
  0.500000000000000     
  0.500000000000000     
  0.500000000000000     
  0.500000000000000     
  0.500000000000000     
  0.500000000000000     
  0.500000000000000     
  0.500000000000000     
  0.500000000000000     
  0.500000000000000     
  0.500000000000000     
  0.500000000000000     
  0.500000000000000     
  0.500000000000000     
  0.500000000000000     
  0.500000000000000     
  0.500000000000000     
  0.500000000000000     
  0.500000000000000     
  0.500000000000000     
  0.500000000000000     
  0.500000000000000     
  0.500000000000000     
  0.500000000000000     
  0.500000000000000     
  0.500000000000000     
  0.500000000000000     
  0.500000000000000     
  0.500000000000000     
  0.500000000000000     
  0.500000000000000     
  0.500000000000000     
  0.500000000000000     
  0.500000000000000     
  0.500000000000000     
  0.500000000000000     
  0.500000000000000     
  0.500000000000000     
  0.500000000000000     
  0.500000000000000     
  0.500000000000000     
  0.500000000000000     
  0.500000000000000     
  0.500000000000000     
  0.500000000000000     
  0.500000000000000     
  0.500000000000000     
  0.500000000000000     
  0.500000000000000     
  0.500000000000000     
  0.500000000000000     
  0.500000000000000     
  0.500000000000000     
  0.500000000000000     
  0.500000000000000     
  0.500000000000000     
  0.500000000000000     
  0.500000000000000     
  0.500000000000000     
  0.500000000000000     
  0.500000000000000     
  0.500000000000000     
  0.500000000000000     
  0.500000000000000     
  0.500000000000000     
  0.500000000000000     
  0.500000000000000     
  0.500000000000000     
  0.500000000000000     
  0.500000000000000     
  0.500000000000000     
  0.500000000000000     
  0.500000000000000     
  0.500000000000000     
  0.500000000000000     
  0.500000000000000     
  0.500000000000000     
  0.500000000000000     
  0.500000000000000     
  0.500000000000000     
  0.500000000000000     
  0.500000000000000     
  0.500000000000000     
  0.500000000000000     
  0.500000000000000     
  0.500000000000000     
  0.500000000000000     
  0.500000000000000     
  0.500000000000000     
  0.500000000000000     
  0.500000000000000     
  0.500000000000000     
  0.500000000000000     
  0.500000000000000     
  0.500000000000000     
  0.500000000000000     
  0.500000000000000     
  0.500000000000000     
  0.500000000000000     
  0.500000000000000     
  0.500000000000000     
  0.500000000000000     
  0.500000000000000     
  0.500000000000000     
  0.500000000000000     
  0.500000000000000     
  0.500000000000000     
  0.500000000000000     
  0.500000000000000     
  0.500000000000000     
  0.500000000000000     
  0.500000000000000     
  0.500000000000000     
  0.500000000000000     
  0.500000000000000     
  0.500000000000000     
  0.500000000000000     
  0.500000000000000     
  0.500000000000000     
  0.500000000000000     
  0.500000000000000     
  0.500000000000000     
  0.500000000000000     
  0.500000000000000     
  0.500000000000000     
  0.500000000000000     
  0.500000000000000     
  0.500000000000000     
  0.500000000000000     
  0.500000000000000     
  0.500000000000000     
  0.500000000000000     
  0.500000000000000     
  0.500000000000000     
  0.500000000000000     
  0.500000000000000     
  0.500000000000000     
  0.500000000000000     
  0.500000000000000     
  0.500000000000000     
  0.500000000000000     
  0.500000000000000     
  0.500000000000000     
  0.500000000000000     
  0.500000000000000     
  0.500000000000000     
  0.500000000000000     
  0.500000000000000     
  0.500000000000000     
  0.500000000000000     
  0.500000000000000     
  0.500000000000000     
  0.500000000000000     
  0.500000000000000     
  0.500000000000000     
  0.500000000000000     
  0.500000000000000     
  0.500000000000000     
  0.500000000000000     
  0.500000000000000     
  0.500000000000000     
  0.500000000000000     
  0.500000000000000     
  0.500000000000000     
  0.500000000000000     
  0.500000000000000     
  0.500000000000000     
  0.500000000000000     
  0.500000000000000     
  0.500000000000000     
  0.500000000000000     
  0.500000000000000     
  0.500000000000000     
  0.500000000000000     
  0.500000000000000     
  0.500000000000000     
  0.500000000000000     
  0.500000000000000     
  0.500000000000000     
  0.500000000000000     
  0.500000000000000     
  0.500000000000000     
  0.500000000000000     
  0.500000000000000     
  0.500000000000000     
  0.500000000000000     
  0.500000000000000     
  0.500000000000000     
  0.500000000000000     
  0.500000000000000     
  0.500000000000000     
  0.500000000000000     
  0.500000000000000     
  0.500000000000000     
  0.500000000000000     
  0.500000000000000     
  0.500000000000000     
  0.500000000000000     
  0.500000000000000     
  0.500000000000000     
  0.500000000000000     
  0.500000000000000     
  0.500000000000000     
  0.500000000000000     
  0.500000000000000     
  0.500000000000000     
  0.500000000000000     
  0.500000000000000     
  0.500000000000000     
  0.500000000000000     
  0.500000000000000     
  0.500000000000000     
  0.500000000000000     
  0.500000000000000     
  0.500000000000000     
  0.500000000000000     
  0.500000000000000     
  0.500000000000000     
  0.500000000000000     
  0.500000000000000     
  0.500000000000000     
  0.500000000000000     
  0.500000000000000     
  0.500000000000000     
  0.500000000000000     
  0.500000000000000     
  0.500000000000000     
  0.500000000000000     
  0.500000000000000     
  0.500000000000000     
  0.500000000000000     
  0.500000000000000     
  0.500000000000000     
  0.500000000000000     
  0.500000000000000     
  0.500000000000000     
  0.500000000000000     
  0.500000000000000     
  0.500000000000000     
  0.500000000000000     
  0.500000000000000     
  0.500000000000000     
  0.500000000000000     
  0.500000000000000     
  0.500000000000000     
  0.500000000000000     
  0.500000000000000     
  0.500000000000000     
  0.500000000000000     
  0.500000000000000     
  0.500000000000000     
  0.500000000000000     
  0.500000000000000     
  0.500000000000000     
  0.500000000000000     
  0.500000000000000     
  0.500000000000000     
  0.500000000000000     
  0.500000000000000     
  0.500000000000000     
  0.500000000000000     
  0.500000000000000     
  0.500000000000000     
  0.500000000000000     
  0.500000000000000     
  0.500000000000000     
  0.500000000000000     
  0.500000000000000     
  0.500000000000000     
  0.500000000000000     
  0.500000000000000     
  0.500000000000000     
  0.500000000000000     
  0.500000000000000     
  0.500000000000000     
  0.500000000000000     
  0.500000000000000     
  0.500000000000000     
  0.500000000000000     
  0.500000000000000     
  0.500000000000000     
  0.500000000000000     
  0.500000000000000     
  0.500000000000000     
  0.500000000000000     
  0.500000000000000     
  0.500000000000000     
  0.500000000000000     
  0.500000000000000     
  0.500000000000000     
  0.500000000000000     
  0.500000000000000     
  0.500000000000000     
  0.500000000000000     
  0.500000000000000     
  0.500000000000000     
  0.500000000000000     
  0.500000000000000     
  0.500000000000000     
  0.500000000000000     
  0.500000000000000     
  0.500000000000000     
  0.500000000000000     
  0.500000000000000     
  0.500000000000000     
  0.500000000000000     
  0.500000000000000     
  0.500000000000000     
  0.500000000000000     
  0.500000000000000     
  0.500000000000000     
  0.500000000000000     
  0.500000000000000     
  0.500000000000000     
  0.500000000000000     
  0.500000000000000     
  0.500000000000000     
  0.500000000000000     
  0.500000000000000     
  0.500000000000000     
  0.500000000000000     
  0.500000000000000     
  0.500000000000000     
  0.500000000000000     
  0.500000000000000     
  0.500000000000000     
  0.500000000000000     
  0.500000000000000     
  0.500000000000000     
  0.500000000000000     
  0.500000000000000     
  0.500000000000000     
  0.500000000000000     
  0.500000000000000     
  0.500000000000000     
  0.500000000000000     
  0.500000000000000     
  0.500000000000000     
  0.500000000000000     
  0.500000000000000     
  0.500000000000000     
  0.500000000000000     
  0.500000000000000     
  0.500000000000000     
  0.500000000000000     
  0.500000000000000     
  0.500000000000000     
  0.500000000000000     
  0.500000000000000     
  0.500000000000000     
  0.500000000000000     
  0.500000000000000     
  0.500000000000000     
  0.500000000000000     
  0.500000000000000     
  0.500000000000000     
  0.500000000000000     
  0.500000000000000     
  0.500000000000000     
  0.500000000000000     
  0.500000000000000     
  0.500000000000000     
  0.500000000000000     
  0.500000000000000     
  0.500000000000000     
  0.500000000000000     
  0.500000000000000     
  0.500000000000000     
  0.500000000000000     
  0.500000000000000     
  0.500000000000000     
  0.500000000000000     
  0.500000000000000     
  0.500000000000000     
  0.500000000000000     
  0.500000000000000     
  0.500000000000000     
  0.500000000000000     
  0.500000000000000     
  0.500000000000000     
  0.500000000000000     
  0.500000000000000     
  0.500000000000000     
  0.500000000000000     
  0.500000000000000     
  0.500000000000000     
  0.500000000000000     
  0.500000000000000     
  0.500000000000000     
  0.500000000000000     
  0.500000000000000     
  0.500000000000000     
  0.500000000000000     
  0.500000000000000     
  0.500000000000000     
  0.500000000000000     
  0.500000000000000     
  0.500000000000000     