# vtk DataFile Version 5.1
Data.vtk
ASCII
DATASET UNSTRUCTURED_GRID
 
POINTS 2000 float
    1.74  -13.48    0.84
   11.07   -8.22    1.27
   -0.33  -14.50    5.73
    1.73  -13.30   -1.70
   -4.16  -11.37    7.53
    0.71  -13.64   -8.80
    3.77  -10.29   -8.54
   -1.03  -13.15   -8.59
    5.07  -10.69   -4.14
    7.75  -11.01    1.09
   -1.48  -13.21   -1.05
    0.82  -14.48   -8.27
    4.38  -12.36    0.46
    0.64  -13.71    2.98
    3.56  -12.38   -0.63
    7.19  -10.19    2.54
    6.50   -9.06    6.06
    2.26  -13.61    7.55
   12.34   -7.60    8.38
    1.99  -13.57   -3.93
    1.92  -14.37   -1.47
   10.87   -9.59    7.18
   -1.37  -11.42   -8.66
    8.66  -11.63   -7.33
    7.16  -11.72    1.74
   -4.42  -11.67   -0.27
    3.32  -14.12    9.50
    1.27  -12.43    7.51
   -5.92  -10.52    4.29
   -5.72  -13.32    4.17
    2.16  -14.34   -3.31
    4.40  -10.40   -0.77
    1.45  -10.39    5.68
    4.04  -13.15   -3.16
   -4.21  -13.85   -3.85
    5.86  -12.54    7.99
    0.32  -12.89    7.40
   -0.81  -12.88    6.03
    0.74  -11.16    2.18
    1.42  -13.70    3.62
    9.31   -7.48    6.54
   -2.91  -14.21   -0.17
   -5.92  -10.39   -7.08
    2.03  -14.36    2.20
   -9.27  -11.11   -7.18
   -0.92   -9.94    8.78
    6.23  -10.34    5.40
    3.59  -12.21   -5.49
    9.92   -6.56    7.67
    3.54  -11.97   -9.50
    6.20  -12.19   -8.36
   -7.73  -11.27    9.48
    2.14  -11.02    7.05
    7.94  -10.97    2.95
    0.45  -11.25    5.37
    6.49  -10.24   -0.41
    1.23  -11.67   -4.27
   -2.56  -12.56    3.49
   -6.34  -13.04   -0.76
   -5.22  -11.85   -3.17
   -3.93  -12.60   -0.66
   -5.15  -11.19    2.15
    3.50  -10.97    6.96
    9.30  -11.12    4.46
    8.62  -11.66    2.66
    5.53  -11.89    0.72
    0.11  -14.50    0.09
    7.95  -11.22    4.31
    4.53  -13.34    0.63
    4.04  -12.81   -6.15
  -11.31   -8.57    9.24
    7.20  -12.59   -7.48
    1.02  -13.69   -3.70
    5.53   -9.32    6.05
    8.57   -8.96    5.52
   -1.57  -14.41   -6.12
    6.68   -8.14    6.40
   -0.60   -9.87   -9.39
    6.53  -11.21    3.64
    6.76   -9.12   -0.09
    7.66   -7.43    8.35
    7.13   -9.57    7.05
    5.34  -12.60    0.04
    1.94  -10.75   -8.46
    7.01  -12.69   -8.66
    5.33  -11.80   -7.18
   -3.86  -13.98    0.00
    3.26  -10.20   -3.42
   -0.02  -11.97    1.81
    9.66   -6.78    8.65
    0.99  -14.47    0.57
    3.04  -11.59   -7.51
   -5.11  -12.21   -2.10
   -3.72  -13.18    6.07
    9.32  -11.10    5.71
    1.47  -10.15    2.30
    2.66  -11.73    3.85
   -2.03  -12.61    4.91
    9.44  -10.92   -0.29
   -7.85  -11.59   -2.52
   -2.61  -14.26    4.22
   10.38   -9.12   -4.90
    2.09  -10.34    4.74
    5.50   -8.90    6.96
   -2.31  -11.49    3.83
    1.99  -11.15   -6.78
   -3.66  -13.25    8.52
    3.32  -12.40   -3.19
   -1.43  -14.43    7.02
    5.64  -11.55    3.95
   -6.77  -11.71    7.22
    5.68  -11.19   -1.71
   11.55   -8.49   -4.53
    3.59  -10.49   -6.50
    9.98  -10.43    4.22
    6.33  -10.00   -6.75
   -3.57  -14.05   -2.01
   -2.56  -12.50   -3.26
   10.19  -10.32    7.06
   -3.22  -14.14    9.48
    8.87   -7.71    7.68
   -5.99  -13.21    7.55
    6.97  -10.57    7.03
    3.93  -10.68    3.42
   -6.48  -12.53    1.04
   -1.85  -11.02   -4.26
    7.94   -9.31   -7.65
    1.72  -14.40    1.25
   10.58   -8.80   -9.07
    7.41   -8.45   -8.33
    2.95  -13.54   -4.19
    6.07  -11.06    2.77
    1.51  -11.71    1.67
    5.62   -8.60    2.66
   -7.12  -12.63   -9.43
   -3.52  -12.27    8.36
    3.33  -14.11   -6.65
    4.73  -13.71   -5.39
   -1.76  -11.71    9.38
    7.24  -12.56    6.08
    5.43  -12.43   -3.83
    1.37  -14.43    2.94
    2.37  -13.02   -2.64
   -4.46  -13.01    6.72
   -1.76  -12.86    6.31
    1.65  -13.77    8.41
    1.12  -13.40    6.30
   -1.56  -12.05   -4.21
    3.76  -13.28   -7.88
    2.08  -12.59   -8.81
    8.65  -10.64    6.48
   -4.82  -12.60    1.56
    1.18  -11.82    4.66
    5.35  -10.25   -1.21
   -0.42  -12.81   -5.01
   -3.91  -13.96    2.96
   -2.10  -13.63    4.80
   -3.21  -10.33    7.11
   -4.64  -13.74    8.61
    9.83   -8.37    4.34
    2.95  -11.94   -4.74
    1.89   -8.39    9.15
    6.42  -11.24   -8.59
    9.63   -9.91    1.12
   -1.19  -10.68   -9.31
    8.47   -9.26    2.44
    0.84  -13.90   -0.23
    8.27  -10.77   -8.76
    5.56  -10.40   -0.06
   -3.43  -12.00   -6.49
    9.93  -10.46   -1.04
   -6.94  -11.87   -8.57
    3.93  -10.21    9.49
   -4.07  -11.99   -5.71
   -0.16  -11.73    4.28
    7.15  -10.30    0.41
    1.38  -11.98    9.01
   -7.99  -11.18    8.28
    3.57  -10.74   -1.21
    3.45  -12.47    2.58
    3.00  -14.19   -5.71
    6.63   -9.99    1.68
    9.83   -9.37   -0.00
    2.54  -12.03   -9.50
    6.59  -10.87    9.50
   10.43  -10.08   -5.20
   -1.20  -12.72    0.47
    1.79  -14.39   -6.88
   -3.81  -13.99    7.83
   -0.84  -14.48   -1.81
    5.16  -12.34   -1.79
   -0.90  -13.96    8.09
   10.80   -8.56    9.43
    3.35  -13.85   -9.50
    1.97  -12.00   -5.03
    6.40  -11.20    7.56
   -3.65  -12.75   -7.71
    2.71  -13.47   -7.28
   -1.13  -13.52   -0.13
   11.42   -8.94   -3.28
    5.29  -10.19    6.85
    3.35   -9.73    7.67
    9.32  -11.11   -3.77
    5.43  -11.80   -0.96
   -2.04  -14.36    2.54
   -4.46  -12.84   -3.03
    9.34   -8.12   -5.73
    2.18  -12.44    8.61
    7.99   -9.89   -5.65
    6.49  -10.57   -9.33
   -3.80  -10.63    8.50
   -0.99  -12.60   -9.50
    8.15   -8.26    6.09
   -0.67  -13.49   -1.94
   -5.57  -11.45   -6.10
   10.29   -7.92    3.36
    7.60   -8.72    2.35
   -0.49  -12.74    4.87
   -7.72  -12.27   -6.25
   -4.08  -13.83   -1.15
    0.56  -10.49    6.43
   10.05   -9.48    7.73
   -5.36  -12.90   -7.38
    1.80  -11.73   -0.55
    9.86   -9.80    8.78
   -2.88  -10.31    9.49
   -8.01  -12.08   -5.04
   10.34  -10.17   -3.35
   -4.13  -12.14    9.37
    0.37  -10.07   -9.47
   -1.47  -14.43   -5.07
    4.68  -11.56    5.39
    2.51  -13.55   -6.31
   -0.27  -10.95    6.85
   -0.32  -13.75   -7.21
   -4.53  -13.76   -2.05
   -7.08  -11.82    3.70
    8.26   -9.13    0.99
    2.73  -13.60    4.82
   -1.69  -13.05   -7.51
    5.37  -11.12    4.82
   -5.66  -10.51    7.54
    0.97  -12.85   -9.45
    8.21   -9.07   -9.34
    5.74  -10.57    3.77
   -1.75  -13.29    2.30
    2.80  -10.05   -8.29
    9.06  -10.06   -1.81
   -7.93  -12.14    9.03
    2.98  -11.48    8.93
    3.11  -11.63    1.67
   -1.42  -14.43   -9.50
   -1.30  -12.29   -8.17
    4.93  -13.64    7.23
   12.99   -6.44    7.10
    5.72  -11.83    5.80
   -1.77  -13.20   -9.26
    7.23  -12.57    4.57
    2.55  -12.68   -5.73
    4.20  -12.65   -1.68
   11.95   -7.92   -7.71
   -5.06  -12.07   -7.85
   -7.96  -11.96    4.25
   -3.89  -12.24    5.75
   -4.36  -13.71   -5.85
    6.26  -13.08   -6.12
    8.69  -11.61    5.13
   -6.50  -11.77    2.89
    3.08  -12.51   -8.80
   -3.52  -12.16   -8.74
    4.91  -12.65   -0.87
    1.86  -11.91    3.09
   10.50   -9.99   -7.89
    9.86   -7.75   -9.00
   -3.02  -10.67   -6.85
    4.35  -11.94    8.09
    8.42  -10.54    3.71
    6.70   -8.06    8.68
    5.95  -11.11   -6.83
   -3.66  -13.07    0.37
   -2.75  -13.01    6.28
   10.90   -9.55    8.71
    5.45  -12.34   -6.17
   -1.24  -10.86    9.42
   -5.19  -13.07    2.48
    4.26   -9.79    1.19
    3.93  -11.54    1.10
    9.06   -9.43    7.97
    6.19  -11.17   -4.43
    7.49   -8.61    6.88
   -0.66  -13.62    5.37
   -9.14  -11.25    8.07
    1.81  -12.33   -1.46
    6.62  -10.95   -5.32
    8.48   -8.82    7.40
    3.21  -13.58   -0.48
    5.45  -13.44   -7.83
    7.91   -9.56    7.77
    4.22  -13.87    6.57
    3.25  -14.13   -7.80
    2.86  -12.63    1.71
    7.33  -12.51    7.60
    6.99  -10.33    3.51
    6.74   -8.74    1.34
   11.94   -7.23    3.42
    3.94  -11.29    8.72
    7.69   -9.57    5.24
    7.20  -12.55   -6.48
    2.69  -12.76   -1.69
   -6.96  -11.70    9.01
    4.05  -11.78   -7.54
    8.83   -9.90    5.28
    7.93   -9.70    0.23
   -8.35  -11.18    2.26
    0.70  -11.65   -7.81
    7.24   -9.94   -3.99
    3.87  -11.07   -9.17
   10.07   -9.30   -3.77
   -6.26  -13.08    3.35
   -4.00  -11.47   -8.19
    1.53  -12.10   -8.13
    4.12  -10.25   -4.63
    3.57  -12.93    1.07
    3.42  -12.85   -4.74
   -4.67  -11.18   -5.72
   12.55   -7.26   -5.23
    4.78  -12.02    3.77
    9.02   -8.47    6.60
   -0.95  -13.08   -6.83
   -2.89  -13.31    4.25
    3.30  -10.92   -2.16
    0.44  -13.64    0.69
   -1.93  -14.37   -0.27
    4.59  -11.59   -1.48
    8.90  -10.09    8.75
   -1.97  -13.46    0.42
   -7.23  -10.49    8.26
   -0.92  -14.47    4.06
   -2.67  -12.78    0.08
    8.57  -10.39   -0.13
    4.67  -11.58   -3.94
   10.97   -8.00   -7.52
   10.52   -9.10    5.99
    0.29  -12.22    5.22
    5.12  -10.14   -7.85
    1.40  -11.94   -7.03
   -0.65  -10.50    7.66
   -0.44  -11.12    2.15
    4.20  -12.90   -4.12
    0.73  -14.48    7.52
   -4.00  -13.94   -4.94
    1.54  -12.03   -9.50
   -3.28  -13.34   -0.52
   -5.18  -12.47    4.33
    2.10  -11.86   -6.07
    4.84  -10.32    4.24
    7.65   -8.93   -3.59
    8.39  -10.88    9.09
   -5.87  -11.32    5.89
   -7.22  -12.57   -7.12
    1.98  -10.30    9.45
    6.96  -11.80    9.50
    7.25  -10.75   -4.57
    4.28  -13.85    9.50
   12.70   -6.94    9.50
   -2.07  -10.88    4.61
   -5.65  -13.35    9.36
    7.83  -11.18   -7.76
   -0.83  -11.73   -4.96
   -2.13  -10.95    7.95
    5.44  -12.79   -7.07
   -6.59  -11.78   -9.50
    7.65  -11.37   -3.81
    3.54  -13.14    9.44
   -2.85  -12.09   -1.44
   -3.58  -14.05    4.36
    9.17   -9.02    4.72
    2.84  -11.09   -3.63
    4.97  -12.03   -4.79
   -1.28  -13.86   -7.93
    9.00   -9.86   -9.34
    2.77  -11.43   -0.20
    7.34  -10.49   -1.95
    9.83   -9.32    6.68
   -1.74  -12.41   -2.71
   -3.88  -11.49   -9.38
    6.12  -11.08   -0.82
    8.13  -12.01    0.38
    3.78  -11.57   -3.49
   -0.34  -10.66   -7.92
    8.60  -11.67    8.51
   10.21  -10.29    5.81
    5.97   -9.09   -5.21
   12.83   -6.76    6.13
    0.66  -11.73    6.87
    9.72   -9.45    4.01
[...]
POINT_DATA 2000
SCALARS radius float
LOOKUP_TABLE default
  0.500000000000000     
  0.500000000000000     
  0.500000000000000     
  0.500000000000000     
  0.500000000000000     
  0.500000000000000     
  0.500000000000000     
  0.500000000000000     
  0.500000000000000     
  0.500000000000000     
  0.500000000000000     
  0.500000000000000     
  0.500000000000000     
  0.500000000000000     
  0.500000000000000     
  0.500000000000000     
  0.500000000000000     
  0.500000000000000     
  0.500000000000000     
  0.500000000000000     
  0.500000000000000     
  0.500000000000000     
  0.500000000000000     
  0.500000000000000     
  0.500000000000000     
  0.500000000000000     
  0.500000000000000     
  0.500000000000000     
  0.500000000000000     
  0.500000000000000     
  0.500000000000000     
  0.500000000000000     
  0.500000000000000     
  0.500000000000000     
  0.500000000000000     
  0.500000000000000     
  0.500000000000000     
  0.500000000000000     
  0.500000000000000     
  0.500000000000000     
  0.500000000000000     
  0.500000000000000     
  0.500000000000000     
  0.500000000000000     
  0.500000000000000     
  0.500000000000000     
  0.500000000000000     
  0.500000000000000     
  0.500000000000000     
  0.500000000000000     
  0.500000000000000     
  0.500000000000000     
  0.500000000000000     
  0.500000000000000     
  0.500000000000000     
  0.500000000000000     
  0.500000000000000     
  0.500000000000000     
  0.500000000000000     
  0.500000000000000     
  0.500000000000000     
  0.500000000000000     
  0.500000000000000     
  0.500000000000000     
  0.500000000000000     
  0.500000000000000     
  0.500000000000000     
  0.500000000000000     
  0.500000000000000     
  0.500000000000000     
  0.500000000000000     
  0.500000000000000     
  0.500000000000000     
  0.500000000000000     
  0.500000000000000     
  0.500000000000000     
  0.500000000000000     
  0.500000000000000     
  0.500000000000000     
  0.500000000000000     
  0.500000000000000     
  0.500000000000000     
  0.500000000000000     
  0.500000000000000     
  0.500000000000000     
  0.500000000000000     
  0.500000000000000     
  0.500000000000000     
  0.500000000000000     
  0.500000000000000     
  0.500000000000000     
  0.500000000000000     
  0.500000000000000     
  0.500000000000000     
  0.500000000000000     
  0.500000000000000     
  0.500000000000000     
  0.500000000000000     
  0.500000000000000     
  0.500000000000000     
  0.500000000000000     
  0.500000000000000     
  0.500000000000000     
  0.500000000000000     
  0.500000000000000     
  0.500000000000000     
  0.500000000000000     
  0.500000000000000     
  0.500000000000000     
  0.500000000000000     
  0.500000000000000     
  0.500000000000000     
  0.500000000000000     
  0.500000000000000     
  0.500000000000000     
  0.500000000000000     
  0.500000000000000     
  0.500000000000000     
  0.500000000000000     
  0.500000000000000     
  0.500000000000000     
  0.500000000000000     
  0.500000000000000     
  0.500000000000000     
  0.500000000000000     
  0.500000000000000     
  0.500000000000000     
  0.500000000000000     
  0.500000000000000     
  0.500000000000000     
  0.500000000000000     
  0.500000000000000     
  0.500000000000000     
  0.500000000000000     
  0.500000000000000     
  0.500000000000000     
  0.500000000000000     
  0.500000000000000     
  0.500000000000000     
  0.500000000000000     
  0.500000000000000     
  0.500000000000000     
  0.500000000000000     
  0.500000000000000     
  0.500000000000000     
  0.500000000000000     
  0.500000000000000     
  0.500000000000000     
  0.500000000000000     
  0.500000000000000     
  0.500000000000000     
  0.500000000000000     
  0.500000000000000     
  0.500000000000000     
  0.500000000000000     
  0.500000000000000     
  0.500000000000000     
  0.500000000000000     
  0.500000000000000     
  0.500000000000000     
  0.500000000000000     
  0.500000000000000     
  0.500000000000000     
  0.500000000000000     
  0.500000000000000     
  0.500000000000000     
  0.500000000000000     
  0.500000000000000     
  0.500000000000000     
  0.500000000000000     
  0.500000000000000     
  0.500000000000000     
  0.500000000000000     
  0.500000000000000     
  0.500000000000000     
  0.500000000000000     
  0.500000000000000     
  0.500000000000000     
  0.500000000000000     
  0.500000000000000     
  0.500000000000000     
  0.500000000000000     
  0.500000000000000     
  0.500000000000000     
  0.500000000000000     
  0.500000000000000     
  0.500000000000000     
  0.500000000000000     
  0.500000000000000     
  0.500000000000000     
  0.500000000000000     
  0.500000000000000     
  0.500000000000000     
  0.500000000000000     
  0.500000000000000     
  0.500000000000000     
  0.500000000000000     
  0.500000000000000     
  0.500000000000000     
  0.500000000000000     
  0.500000000000000     
  0.500000000000000     
  0.500000000000000     
  0.500000000000000     
  0.500000000000000     
  0.500000000000000     
  0.500000000000000     
  0.500000000000000     
  0.500000000000000     
  0.500000000000000     
  0.500000000000000     
  0.500000000000000     
  0.500000000000000     
  0.500000000000000     
  0.500000000000000     
  0.500000000000000     
  0.500000000000000     
  0.500000000000000     
  0.500000000000000     
  0.500000000000000     
  0.500000000000000     
  0.500000000000000     
  0.500000000000000     
  0.500000000000000     
  0.500000000000000     
  0.500000000000000     
  0.500000000000000     
  0.500000000000000     
  0.500000000000000     
  0.500000000000000     
  0.500000000000000     
  0.500000000000000     
  0.500000000000000     
  0.500000000000000     
  0.500000000000000     
  0.500000000000000     
  0.500000000000000     
  0.500000000000000     
  0.500000000000000     
  0.500000000000000     
  0.500000000000000     
  0.500000000000000     
  0.500000000000000     
  0.500000000000000     
  0.500000000000000     
  0.500000000000000     
  0.500000000000000     
  0.500000000000000     
  0.500000000000000     
  0.500000000000000     
  0.500000000000000     
  0.500000000000000     
  0.500000000000000     
  0.500000000000000     
  0.500000000000000     
  0.500000000000000     
  0.500000000000000     
  0.500000000000000     
  0.500000000000000     
  0.500000000000000     
  0.500000000000000     
  0.500000000000000     
  0.500000000000000     
  0.500000000000000     
  0.500000000000000     
  0.500000000000000     
  0.500000000000000     
  0.500000000000000     
  0.500000000000000     
  0.500000000000000     
  0.500000000000000     
  0.500000000000000     
  0.500000000000000     
  0.500000000000000     
  0.500000000000000     
  0.500000000000000     
  0.500000000000000     
  0.500000000000000     
  0.500000000000000     
  0.500000000000000     
  0.500000000000000     
  0.500000000000000     
  0.500000000000000     
  0.500000000000000     
  0.500000000000000     
  0.500000000000000     
  0.500000000000000     
  0.500000000000000     
  0.500000000000000     
  0.500000000000000     
  0.500000000000000     
  0.500000000000000     
  0.500000000000000     
  0.500000000000000     
  0.500000000000000     
  0.500000000000000     
  0.500000000000000     
  0.500000000000000     
  0.500000000000000     
  0.500000000000000     
  0.500000000000000     
  0.500000000000000     
  0.500000000000000     
  0.500000000000000     
  0.500000000000000     
  0.500000000000000     
  0.500000000000000     
  0.500000000000000     
  0.500000000000000     
  0.500000000000000     
  0.500000000000000     
  0.500000000000000     
  0.500000000000000     
  0.500000000000000     
  0.500000000000000     
  0.500000000000000     
  0.500000000000000     
  0.500000000000000     
  0.500000000000000     
  0.500000000000000     
  0.500000000000000     
  0.500000000000000     
  0.500000000000000     
  0.500000000000000     
  0.500000000000000     
  0.500000000000000     
  0.500000000000000     
  0.500000000000000     
  0.500000000000000     
  0.500000000000000     
  0.500000000000000     
  0.500000000000000     
  0.500000000000000     
  0.500000000000000     
  0.500000000000000     
  0.500000000000000     
  0.500000000000000     
  0.500000000000000     
  0.500000000000000     
  0.500000000000000     
  0.500000000000000     
  0.500000000000000     
  0.500000000000000     
  0.500000000000000     
  0.500000000000000     
  0.500000000000000     
  0.500000000000000     
  0.500000000000000     
  0.500000000000000     
  0.500000000000000     
  0.500000000000000     
  0.500000000000000     
  0.500000000000000     
  0.500000000000000     
  0.500000000000000     
  0.500000000000000     
  0.500000000000000     
  0.500000000000000     
  0.500000000000000     
  0.500000000000000     
  0.500000000000000     
  0.500000000000000     
  0.500000000000000     
  0.500000000000000     
  0.500000000000000     
  0.500000000000000     
  0.500000000000000     
  0.500000000000000     
  0.500000000000000     
  0.500000000000000     
  0.500000000000000     
  0.500000000000000     
  0.500000000000000     
  0.500000000000000     
  0.500000000000000     
  0.500000000000000     
  0.500000000000000     
  0.500000000000000     
  0.500000000000000     
  0.500000000000000     
  0.500000000000000     
  0.500000000000000     
  0.500000000000000     
  0.500000000000000     
  0.500000000000000     
  0.500000000000000     
  0.500000000000000     
  0.500000000000000     
  0.500000000000000     
  0.500000000000000     
  0.500000000000000     
  0.500000000000000     
  0.500000000000000     
  0.500000000000000     
  0.500000000000000     
  0.500000000000000     
  0.500000000000000     
  0.500000000000000     
  0.500000000000000     
  0.500000000000000     
  0.500000000000000     
  0.500000000000000     
  0.500000000000000     
  0.500000000000000     
  0.500000000000000     
  0.500000000000000     
  0.500000000000000     
  0.500000000000000     
  0.500000000000000     
  0.500000000000000     
  0.500000000000000     
  0.500000000000000     
  0.500000000000000     
  0.500000000000000     
  0.500000000000000     
  0.500000000000000     
  0.500000000000000     
  0.500000000000000     
  0.500000000000000     
  0.500000000000000     
  0.500000000000000     
  0.500000000000000     
  0.500000000000000     
  0.500000000000000     
  0.500000000000000     
  0.500000000000000     
  0.500000000000000     
  0.500000000000000     
  0.500000000000000     
  0.500000000000000     
  0.500000000000000     
  0.500000000000000     
  0.500000000000000     
  0.500000000000000     
  0.500000000000000     
  0.500000000000000     
  0.500000000000000     
  0.500000000000000     
  0.500000000000000     
  0.500000000000000     
  0.500000000000000     
  0.500000000000000     
  0.500000000000000     
  0.500000000000000     
  0.500000000000000     
  0.500000000000000     
  0.500000000000000     
  0.500000000000000     
  0.500000000000000     
  0.500000000000000     
  0.500000000000000     
  0.500000000000000     
  0.500000000000000     
  0.500000000000000     
  0.500000000000000     
  0.500000000000000     
  0.500000000000000     
  0.500000000000000     
  0.500000000000000     
  0.500000000000000     
  0.500000000000000     
  0.500000000000000     
  0.500000000000000     
  0.500000000000000     
  0.500000000000000     
  0.500000000000000     
  0.500000000000000     
  0.500000000000000     
  0.500000000000000     
  0.500000000000000     
  0.500000000000000     
  0.500000000000000     
  0.500000000000000     
  0.500000000000000     
  0.500000000000000     
  0.500000000000000     
  0.500000000000000     
  0.500000000000000     
  0.500000000000000     
  0.500000000000000     
  0.500000000000000     
  0.500000000000000     
  0.500000000000000     
  0.500000000000000     
  0.500000000000000     
  0.500000000000000     
  0.500000000000000     
  0.500000000000000     
  0.500000000000000     
  0.500000000000000     
  0.500000000000000     
  0.500000000000000     
  0.500000000000000     
  0.500000000000000     
  0.500000000000000     
  0.500000000000000     
  0.500000000000000     
  0.500000000000000     
  0.500000000000000     
  0.500000000000000     
  0.500000000000000     
  0.500000000000000     
  0.500000000000000     
  0.500000000000000     
  0.500000000000000     
  0.500000000000000     
  0.500000000000000     
  0.500000000000000     
  0.500000000000000     
  0.500000000000000     
  0.500000000000000     
  0.500000000000000     
  0.500000000000000     
  0.500000000000000     
  0.500000000000000     
  0.500000000000000     
  0.500000000000000     
  0.500000000000000     
  0.500000000000000     
  0.500000000000000     
  0.500000000000000     
  0.500000000000000     
  0.500000000000000     
  0.500000000000000     
  0.500000000000000     
  0.500000000000000     
  0.500000000000000     
  0.500000000000000     
  0.500000000000000     
  0.500000000000000     
  0.500000000000000     
  0.500000000000000     
  0.500000000000000     
  0.500000000000000     
  0.500000000000000     
  0.500000000000000     
  0.500000000000000     
  0.500000000000000     
  0.500000000000000     
  0.500000000000000     
  0.500000000000000     
  0.500000000000000     
  0.500000000000000     
  0.500000000000000     
  0.500000000000000     
  0.500000000000000     
  0.500000000000000     
  0.500000000000000     
  0.500000000000000     
  0.500000000000000     
  0.500000000000000     
  0.500000000000000     
  0.500000000000000     
  0.500000000000000     
  0.500000000000000     
  0.500000000000000     
  0.500000000000000     
  0.500000000000000     
  0.500000000000000     
  0.500000000000000     
  0.500000000000000     
  0.500000000000000     
  0.500000000000000     
  0.500000000000000     
  0.500000000000000     
  0.500000000000000     
  0.500000000000000     
  0.500000000000000     
  0.500000000000000     
  0.500000000000000     
  0.500000000000000     
  0.500000000000000     
  0.500000000000000     
  0.500000000000000     
  0.500000000000000     
  0.500000000000000     
  0.500000000000000     
  0.500000000000000     
  0.500000000000000     
  0.500000000000000     
  0.500000000000000     
  0.500000000000000     
  0.500000000000000     
  0.500000000000000     
  0.500000000000000     
  0.500000000000000     
  0.500000000000000     
  0.500000000000000     
  0.500000000000000     
  0.500000000000000     
  0.500000000000000     
  0.500000000000000     
  0.500000000000000     
  0.500000000000000     
  0.500000000000000     
  0.500000000000000     
  0.500000000000000     
  0.500000000000000     
  0.500000000000000     
  0.500000000000000     
  0.500000000000000     
  0.500000000000000     
  0.500000000000000     
  0.500000000000000     
  0.500000000000000     
  0.500000000000000     
  0.500000000000000     
  0.500000000000000     
  0.500000000000000     
  0.500000000000000     
  0.500000000000000     
  0.500000000000000     
  0.500000000000000     
  0.500000000000000     
  0.500000000000000     
  0.500000000000000     
  0.500000000000000     
  0.500000000000000     
  0.500000000000000     
  0.500000000000000     
  0.500000000000000     
  0.500000000000000     
  0.500000000000000     
  0.500000000000000     
  0.500000000000000     
  0.500000000000000     
  0.500000000000000     
  0.500000000000000     
  0.500000000000000     
  0.500000000000000     
  0.500000000000000     
  0.500000000000000     
  0.500000000000000     
  0.500000000000000     
  0.500000000000000     
  0.500000000000000     
  0.500000000000000     
  0.500000000000000     
  0.500000000000000     
  0.500000000000000     
  0.500000000000000     
  0.500000000000000     
  0.500000000000000     
  0.500000000000000     
  0.500000000000000     
  0.500000000000000     
  0.500000000000000     
  0.500000000000000     
  0.500000000000000     
  0.500000000000000     
  0.500000000000000     
  0.500000000000000     
  0.500000000000000     
  0.500000000000000     
  0.500000000000000     
  0.500000000000000     
  0.500000000000000     
  0.500000000000000     
  0.500000000000000     
  0.500000000000000     
  0.500000000000000     
  0.500000000000000     
  0.500000000000000     
  0.500000000000000     
  0.500000000000000     
  0.500000000000000     
  0.500000000000000     
  0.500000000000000     
  0.500000000000000     
  0.500000000000000     
  0.500000000000000     
  0.500000000000000     
  0.500000000000000     
  0.500000000000000     
  0.500000000000000     
  0.500000000000000     
  0.500000000000000     
  0.500000000000000     
  0.500000000000000     
  0.500000000000000     
  0.500000000000000     
  0.500000000000000     
  0.500000000000000     
  0.500000000000000     
  0.500000000000000     
  0.500000000000000     
  0.500000000000000     
  0.500000000000000     
  0.500000000000000     
  0.500000000000000     
  0.500000000000000     
  0.500000000000000     
  0.500000000000000     
  0.500000000000000     
  0.500000000000000     
  0.500000000000000     
  0.500000000000000     
  0.500000000000000     
  0.500000000000000     
  0.500000000000000     
  0.500000000000000     
  0.500000000000000     
  0.500000000000000     
  0.500000000000000     
  0.500000000000000     
  0.500000000000000     
  0.500000000000000     
  0.500000000000000     
  0.500000000000000     
  0.500000000000000     
  0.500000000000000     
  0.500000000000000     
  0.500000000000000     
  0.500000000000000     
  0.500000000000000     
  0.500000000000000     
  0.500000000000000     
  0.500000000000000     
  0.500000000000000     
  0.500000000000000     
  0.500000000000000     
  0.500000000000000     
  0.500000000000000     
  0.500000000000000     
  0.500000000000000     
  0.500000000000000     
  0.500000000000000     
  0.500000000000000     
  0.500000000000000     
  0.500000000000000     
  0.500000000000000     
  0.500000000000000     
  0.500000000000000     
  0.500000000000000     
  0.500000000000000     
  0.500000000000000     
  0.500000000000000     
  0.500000000000000     
  0.500000000000000     
  0.500000000000000     
  0.500000000000000     
  0.500000000000000     
  0.500000000000000     
  0.500000000000000     
  0.500000000000000     
  0.500000000000000     
  0.500000000000000     
  0.500000000000000     
  0.500000000000000     
  0.500000000000000     
  0.500000000000000     
  0.500000000000000     
  0.500000000000000     
  0.500000000000000     
  0.500000000000000     
  0.500000000000000     
  0.500000000000000     
  0.500000000000000     
  0.500000000000000     
  0.500000000000000     
  0.500000000000000     
  0.500000000000000     
  0.500000000000000     
  0.500000000000000     
  0.500000000000000     
  0.500000000000000     
  0.500000000000000     
  0.500000000000000     
  0.500000000000000     
  0.500000000000000     
  0.500000000000000     
  0.500000000000000     
  0.500000000000000     
  0.500000000000000     
  0.500000000000000     
  0.500000000000000     
  0.500000000000000     
  0.500000000000000     
  0.500000000000000     
  0.500000000000000     
  0.500000000000000     
  0.500000000000000     
  0.500000000000000     
  0.500000000000000     
  0.500000000000000     
  0.500000000000000     
  0.500000000000000     
  0.500000000000000     
  0.500000000000000     
  0.500000000000000     
  0.500000000000000     
  0.500000000000000     
  0.500000000000000     
  0.500000000000000     
  0.500000000000000     
  0.500000000000000     
  0.500000000000000     