# vtk DataFile Version 5.1
Data.vtk
ASCII
DATASET UNSTRUCTURED_GRID
 
POINTS    2 float
           0           0           0
           0           0           0
 
CELL_TYPES    2
           1
           1
 
POINT_DATA    2
SCALARS radius float
LOOKUP_TABLE default
   15.0000000000000     
   16.5000000000000     
 
VECTORS direction float
  8.39-12.43  0.00
  9.23-13.68  0.00
