# vtk DataFile Version 5.1
Data.vtk
ASCII
DATASET UNSTRUCTURED_GRID
 
POINTS 2000 float
    1.85  -13.47    0.91
   11.16   -8.30    1.84
   -0.33  -14.50    5.74
    1.70  -13.21   -1.66
   -4.20  -11.21    7.75
    0.70  -13.64   -8.80
    4.09   -7.97   -9.21
   -1.03  -13.15   -8.59
    5.06  -10.75   -4.21
    7.94  -11.08    1.21
   -1.47  -13.23   -1.06
    0.82  -14.48   -8.28
    4.54  -12.33    0.57
    0.61  -13.70    2.97
    3.78  -12.23   -0.62
    7.57   -9.94    3.07
    6.41   -8.63    6.43
    2.27  -13.60    7.55
   12.54   -7.29    8.46
    2.00  -13.56   -3.92
    1.92  -14.37   -1.48
   10.93   -9.53    7.29
   -1.35  -11.38   -8.67
    8.67  -11.62   -7.34
    7.23  -11.67    1.84
   -4.42  -11.64   -0.67
    3.32  -14.11    9.50
    1.23  -12.43    7.52
   -6.37  -10.57    4.76
   -5.82  -13.28    4.18
    2.17  -14.34   -3.32
    4.91  -10.27   -0.78
    1.30  -10.32    6.34
    4.07  -13.14   -3.17
   -4.28  -13.78   -3.92
    5.86  -12.57    8.03
    0.32  -12.84    7.47
   -0.84  -12.86    6.02
    0.49  -11.32    3.03
    1.41  -13.68    3.61
    9.69   -7.16    7.07
   -2.92  -14.20   -0.14
   -6.52  -10.31   -7.79
    2.04  -14.36    2.21
   -9.42  -11.01   -7.39
   -1.54   -9.93    9.00
    6.36  -10.21    5.67
    3.64  -12.17   -5.52
   10.32   -5.91    8.32
    3.54  -11.96   -9.50
    6.21  -12.18   -8.34
   -7.98  -11.14    9.35
    2.13  -11.02    7.14
    8.10  -10.97    3.16
    0.22  -11.27    5.59
    6.88  -10.23   -0.08
    0.56  -11.39   -4.23
   -2.71  -12.59    3.56
   -6.33  -12.94   -0.98
   -5.47  -11.42   -3.92
   -3.96  -12.69   -0.82
   -6.08  -10.91    3.16
    3.65  -10.83    7.19
    9.37  -11.06    4.55
    8.66  -11.63    2.66
    5.65  -11.94    0.74
    0.11  -14.50    0.11
    8.00  -11.06    4.47
    4.54  -13.33    0.63
    4.05  -12.82   -6.15
  -12.21   -6.72    9.33
    7.20  -12.59   -7.48
    1.04  -13.69   -3.67
    5.57   -9.35    6.49
    8.88   -8.91    5.90
   -1.58  -14.41   -6.11
    7.12   -7.86    7.22
   -1.15   -9.69   -9.44
    6.81  -10.90    3.91
    7.54   -8.29    1.30
    7.85   -6.73    8.98
    7.32   -9.56    7.25
    5.39  -12.60    0.04
    2.00  -10.71   -8.48
    7.01  -12.69   -8.64
    5.34  -11.78   -7.24
   -3.88  -13.97    0.04
    4.50   -9.84   -2.49
   -0.20  -11.96    1.93
    9.85   -6.51    8.99
    0.99  -14.47    0.59
    3.19  -11.60   -7.63
   -5.07  -12.30   -2.43
   -3.78  -13.19    6.09
    9.36  -11.07    5.74
    1.66   -9.80    3.63
    2.68  -11.78    4.09
   -2.12  -12.62    4.94
    9.58  -10.88   -0.36
   -8.71  -11.39   -3.18
   -2.60  -14.27    4.24
   10.58   -9.11   -5.28
    1.82  -10.24    5.48
    5.72   -8.40    7.54
   -2.81  -11.73    4.06
    1.54  -10.93   -7.00
   -3.67  -13.24    8.54
    3.34  -12.34   -3.12
   -1.42  -14.42    6.99
    5.68  -11.38    4.02
   -7.05  -11.74    7.32
    5.83  -10.81   -1.63
   11.28   -8.44   -4.86
    3.67  -10.47   -6.43
   10.03  -10.31    4.33
    6.71   -9.83   -6.75
   -3.59  -14.05   -2.05
   -2.58  -12.48   -3.35
   10.26  -10.22    7.04
   -3.26  -14.13    9.50
    8.92   -7.04    8.09
   -6.06  -13.17    7.64
    7.03  -10.49    7.06
    4.32  -10.32    4.14
   -6.47  -12.58    1.50
   -1.98  -11.05   -4.32
    7.96   -9.20   -7.86
    1.73  -14.40    1.26
   10.71   -8.67   -9.17
    7.74   -8.28   -8.81
    2.97  -13.53   -4.17
    6.07  -10.93    2.97
    1.29  -11.74    2.15
    6.22   -8.33    3.38
   -7.16  -12.61   -9.49
   -3.54  -12.27    8.38
    3.34  -14.11   -6.65
    4.75  -13.70   -5.40
   -1.78  -11.70    9.42
    7.27  -12.54    6.07
    5.44  -12.40   -3.87
    1.38  -14.43    2.96
    2.46  -12.93   -2.54
   -4.50  -12.99    6.75
   -1.79  -12.87    6.33
    1.64  -13.76    8.42
    1.10  -13.38    6.32
   -1.58  -11.93   -4.08
    3.77  -13.28   -7.89
    2.07  -12.58   -8.81
    8.72  -10.61    6.49
   -4.97  -12.56    1.72
    1.25  -11.67    4.89
    5.89  -10.08   -0.95
   -0.45  -12.82   -5.03
   -3.91  -13.96    3.01
   -2.10  -13.61    4.81
   -3.71  -10.23    7.53
   -4.67  -13.73    8.62
   10.28   -7.32    4.92
    2.94  -11.94   -4.83
    2.64   -8.67    9.44
    6.44  -11.24   -8.60
    9.84   -9.90    1.40
   -1.24  -10.68   -9.38
    8.93   -8.92    2.90
    0.83  -13.86   -0.19
    8.26  -10.78   -8.78
    5.95  -10.30    0.27
   -3.57  -11.94   -6.59
   10.12  -10.37   -1.03
   -7.22  -11.76   -8.63
    3.99  -10.20    9.50
   -4.31  -11.96   -5.91
   -0.44  -11.49    4.60
    7.60  -10.28    0.71
    1.40  -11.97    9.06
   -8.29  -10.92    8.34
    4.12  -10.81   -1.06
    3.62  -12.26    2.62
    3.00  -14.19   -5.71
    7.07   -9.81    2.17
   10.06   -8.97    1.12
    2.55  -12.03   -9.50
    6.63  -10.86    9.50
   10.41  -10.10   -5.28
   -1.24  -12.80    0.70
    1.80  -14.39   -6.88
   -3.84  -13.98    7.81
   -0.84  -14.48   -1.80
    5.18  -12.37   -1.75
   -0.91  -13.97    8.10
   10.98   -8.35    9.47
    3.35  -13.85   -9.50
    1.96  -12.02   -5.03
    6.47  -11.16    7.57
   -3.67  -12.74   -7.69
    2.72  -13.47   -7.28
   -1.12  -13.52   -0.08
   11.33   -8.58   -3.83
    5.48  -10.18    7.17
    3.80   -9.40    7.91
    9.32  -11.09   -3.72
    5.58  -11.72   -0.69
   -2.05  -14.35    2.53
   -4.57  -12.95   -3.12
   10.35   -7.45   -6.03
    2.18  -12.43    8.63
    8.25   -9.65   -5.68
    6.52  -10.57   -9.39
   -3.98  -10.63    8.56
   -0.97  -12.59   -9.50
    8.41   -8.19    6.55
   -0.62  -13.51   -1.92
   -6.06  -11.05   -6.66
   10.67   -7.63    4.06
    8.11   -8.25    2.99
   -0.61  -12.65    4.85
   -7.84  -12.20   -6.32
   -4.19  -13.78   -1.29
    0.49  -10.55    6.91
   10.13   -9.38    7.87
   -5.46  -12.92   -7.41
    1.80  -11.44    0.12
    9.90   -9.77    8.84
   -3.07  -10.44    9.49
   -8.18  -11.97   -5.10
   10.37  -10.14   -3.33
   -4.23  -12.13    9.39
    0.32   -9.85   -9.47
   -1.47  -14.43   -5.07
    4.83  -11.44    5.65
    2.51  -13.55   -6.30
   -0.47  -10.82    6.93
   -0.30  -13.75   -7.21
   -4.62  -13.70   -2.19
   -7.35  -11.67    4.15
    8.43   -8.91    1.45
    2.70  -13.60    4.86
   -1.71  -13.07   -7.51
    5.48  -11.11    4.96
   -6.09  -10.50    7.77
    0.97  -12.85   -9.45
    8.38   -8.95   -9.44
    6.08  -10.30    4.24
   -1.83  -13.33    2.28
    2.74   -9.80   -8.59
    9.75   -9.46   -1.63
   -8.00  -12.10    9.06
    3.00  -11.45    8.92
    3.45  -11.34    2.08
   -1.42  -14.43   -9.50
   -1.31  -12.27   -8.22
    4.94  -13.63    7.23
   13.72   -4.68    7.63
    5.75  -11.82    5.84
   -1.77  -13.20   -9.26
    7.27  -12.55    4.54
    2.57  -12.46   -5.73
    4.21  -12.66   -1.68
   12.03   -7.61   -8.22
   -5.25  -12.07   -7.92
   -8.49  -11.66    4.67
   -4.15  -12.27    5.99
   -4.40  -13.65   -5.84
    6.28  -13.07   -6.12
    8.73  -11.58    5.12
   -6.77  -11.90    3.37
    3.08  -12.51   -8.80
   -3.53  -12.12   -8.60
    4.87  -12.59   -0.82
    1.89  -11.88    3.29
   10.52   -9.98   -7.90
   10.14   -7.45   -9.43
   -2.86  -10.45   -7.04
    4.35  -11.95    8.10
    8.36  -10.33    3.89
    6.84   -7.68    9.15
    5.96  -11.08   -6.89
   -3.75  -13.01    0.30
   -2.81  -13.03    6.30
   10.95   -9.49    8.81
    5.48  -12.33   -6.16
   -1.27  -10.84    9.46
   -5.40  -13.01    2.64
    5.25   -9.05    2.22
    4.16  -11.41    1.38
    9.15   -9.33    8.04
    6.34  -11.14   -4.59
    7.73   -8.65    7.31
   -0.67  -13.62    5.38
   -9.34  -11.09    8.33
    1.93  -12.30   -1.31
    6.77  -10.88   -5.46
    8.62   -8.53    7.77
    3.22  -13.60   -0.47
    5.46  -13.43   -7.81
    8.13   -9.38    7.99
    4.23  -13.87    6.57
    3.25  -14.13   -7.80
    3.02  -12.56    1.88
    7.36  -12.50    7.64
    7.23  -10.00    4.01
    7.20   -8.53    2.38
   12.07   -6.96    4.27
    3.96  -11.24    8.70
    7.88   -9.47    5.63
    7.20  -12.54   -6.48
    2.79  -12.78   -1.60
   -7.10  -11.56    9.12
    4.22  -11.67   -7.62
    8.94   -9.90    5.46
    8.27   -9.53    0.61
   -9.27  -11.05    3.49
    0.65  -11.67   -7.91
    7.60   -9.62   -4.37
    3.87  -11.05   -9.24
   10.14   -9.22   -3.97
   -6.56  -12.83    3.68
   -4.12  -11.36   -8.32
    1.53  -12.10   -8.12
    4.77  -10.21   -5.00
    3.68  -12.93    1.07
    3.42  -12.84   -4.73
   -4.89  -11.14   -6.25
   12.84   -6.74   -6.04
    4.82  -11.89    3.88
    9.22   -8.05    7.13
   -0.96  -13.09   -6.84
   -2.90  -13.31    4.27
    3.75  -10.94   -2.10
    0.44  -13.62    0.74
   -1.94  -14.37   -0.27
    4.82  -11.49   -1.43
    8.95  -10.07    8.76
   -2.04  -13.47    0.41
   -7.40  -10.50    8.05
   -0.93  -14.47    4.06
   -2.72  -12.81    0.05
    8.90  -10.47    0.25
    4.61  -11.62   -3.96
   10.81   -7.53   -7.84
   10.64   -8.91    6.07
    0.19  -12.23    5.30
    5.41  -10.02   -8.05
    1.34  -11.93   -7.12
   -1.02  -10.36    8.01
   -0.46  -11.08    2.81
    4.23  -12.89   -4.12
    0.73  -14.48    7.52
   -4.02  -13.93   -4.96
    1.55  -12.04   -9.49
   -3.29  -13.39   -0.58
   -5.39  -12.44    4.51
    2.01  -11.73   -6.31
    5.23  -10.14    4.82
    8.26   -8.95   -3.47
    8.43  -10.86    9.09
   -6.17  -11.29    6.20
   -7.33  -12.51   -7.15
    1.96  -10.23    9.50
    6.98  -11.80    9.49
    7.46  -10.80   -4.69
    4.28  -13.85    9.50
   12.73   -6.54    9.50
   -2.47  -10.98    4.76
   -5.70  -13.33    9.39
    7.88  -11.09   -7.78
   -1.13  -11.61   -4.92
   -2.17  -10.90    8.02
    5.45  -12.77   -7.06
   -6.70  -11.72   -9.50
    7.65  -11.36   -3.78
    3.54  -13.14    9.44
   -3.04  -12.10   -1.29
   -3.65  -14.03    4.38
    9.43   -8.81    4.98
    2.92  -10.98   -3.95
    4.99  -11.97   -4.88
   -1.28  -13.87   -7.93
    9.02   -9.80   -9.38
    3.10  -11.46   -0.14
    7.54  -10.32   -2.10
    9.94   -8.97    6.80
   -1.85  -12.43   -2.64
   -3.97  -11.53   -9.34
    6.40  -11.08   -0.55
    8.16  -11.96    0.39
    3.68  -11.54   -3.62
   -0.74  -10.63   -8.25
    8.62  -11.66    8.52
   10.26  -10.24    5.85
    7.11   -8.82   -4.74
   13.04   -6.33    6.61
    0.34  -11.59    6.99
    9.88   -9.30    4.23
[...]
POINT_DATA 2000
SCALARS radius float
LOOKUP_TABLE default
  0.500000000000000     
  0.500000000000000     
  0.500000000000000     
  0.500000000000000     
  0.500000000000000     
  0.500000000000000     
  0.500000000000000     
  0.500000000000000     
  0.500000000000000     
  0.500000000000000     
  0.500000000000000     
  0.500000000000000     
  0.500000000000000     
  0.500000000000000     
  0.500000000000000     
  0.500000000000000     
  0.500000000000000     
  0.500000000000000     
  0.500000000000000     
  0.500000000000000     
  0.500000000000000     
  0.500000000000000     
  0.500000000000000     
  0.500000000000000     
  0.500000000000000     
  0.500000000000000     
  0.500000000000000     
  0.500000000000000     
  0.500000000000000     
  0.500000000000000     
  0.500000000000000     
  0.500000000000000     
  0.500000000000000     
  0.500000000000000     
  0.500000000000000     
  0.500000000000000     
  0.500000000000000     
  0.500000000000000     
  0.500000000000000     
  0.500000000000000     
  0.500000000000000     
  0.500000000000000     
  0.500000000000000     
  0.500000000000000     
  0.500000000000000     
  0.500000000000000     
  0.500000000000000     
  0.500000000000000     
  0.500000000000000     
  0.500000000000000     
  0.500000000000000     
  0.500000000000000     
  0.500000000000000     
  0.500000000000000     
  0.500000000000000     
  0.500000000000000     
  0.500000000000000     
  0.500000000000000     
  0.500000000000000     
  0.500000000000000     
  0.500000000000000     
  0.500000000000000     
  0.500000000000000     
  0.500000000000000     
  0.500000000000000     
  0.500000000000000     
  0.500000000000000     
  0.500000000000000     
  0.500000000000000     
  0.500000000000000     
  0.500000000000000     
  0.500000000000000     
  0.500000000000000     
  0.500000000000000     
  0.500000000000000     
  0.500000000000000     
  0.500000000000000     
  0.500000000000000     
  0.500000000000000     
  0.500000000000000     
  0.500000000000000     
  0.500000000000000     
  0.500000000000000     
  0.500000000000000     
  0.500000000000000     
  0.500000000000000     
  0.500000000000000     
  0.500000000000000     
  0.500000000000000     
  0.500000000000000     
  0.500000000000000     
  0.500000000000000     
  0.500000000000000     
  0.500000000000000     
  0.500000000000000     
  0.500000000000000     
  0.500000000000000     
  0.500000000000000     
  0.500000000000000     
  0.500000000000000     
  0.500000000000000     
  0.500000000000000     
  0.500000000000000     
  0.500000000000000     
  0.500000000000000     
  0.500000000000000     
  0.500000000000000     
  0.500000000000000     
  0.500000000000000     
  0.500000000000000     
  0.500000000000000     
  0.500000000000000     
  0.500000000000000     
  0.500000000000000     
  0.500000000000000     
  0.500000000000000     
  0.500000000000000     
  0.500000000000000     
  0.500000000000000     
  0.500000000000000     
  0.500000000000000     
  0.500000000000000     
  0.500000000000000     
  0.500000000000000     
  0.500000000000000     
  0.500000000000000     
  0.500000000000000     
  0.500000000000000     
  0.500000000000000     
  0.500000000000000     
  0.500000000000000     
  0.500000000000000     
  0.500000000000000     
  0.500000000000000     
  0.500000000000000     
  0.500000000000000     
  0.500000000000000     
  0.500000000000000     
  0.500000000000000     
  0.500000000000000     
  0.500000000000000     
  0.500000000000000     
  0.500000000000000     
  0.500000000000000     
  0.500000000000000     
  0.500000000000000     
  0.500000000000000     
  0.500000000000000     
  0.500000000000000     
  0.500000000000000     
  0.500000000000000     
  0.500000000000000     
  0.500000000000000     
  0.500000000000000     
  0.500000000000000     
  0.500000000000000     
  0.500000000000000     
  0.500000000000000     
  0.500000000000000     
  0.500000000000000     
  0.500000000000000     
  0.500000000000000     
  0.500000000000000     
  0.500000000000000     
  0.500000000000000     
  0.500000000000000     
  0.500000000000000     
  0.500000000000000     
  0.500000000000000     
  0.500000000000000     
  0.500000000000000     
  0.500000000000000     
  0.500000000000000     
  0.500000000000000     
  0.500000000000000     
  0.500000000000000     
  0.500000000000000     
  0.500000000000000     
  0.500000000000000     
  0.500000000000000     
  0.500000000000000     
  0.500000000000000     
  0.500000000000000     
  0.500000000000000     
  0.500000000000000     
  0.500000000000000     
  0.500000000000000     
  0.500000000000000     
  0.500000000000000     
  0.500000000000000     
  0.500000000000000     
  0.500000000000000     
  0.500000000000000     
  0.500000000000000     
  0.500000000000000     
  0.500000000000000     
  0.500000000000000     
  0.500000000000000     
  0.500000000000000     
  0.500000000000000     
  0.500000000000000     
  0.500000000000000     
  0.500000000000000     
  0.500000000000000     
  0.500000000000000     
  0.500000000000000     
  0.500000000000000     
  0.500000000000000     
  0.500000000000000     
  0.500000000000000     
  0.500000000000000     
  0.500000000000000     
  0.500000000000000     
  0.500000000000000     
  0.500000000000000     
  0.500000000000000     
  0.500000000000000     
  0.500000000000000     
  0.500000000000000     
  0.500000000000000     
  0.500000000000000     
  0.500000000000000     
  0.500000000000000     
  0.500000000000000     
  0.500000000000000     
  0.500000000000000     
  0.500000000000000     
  0.500000000000000     
  0.500000000000000     
  0.500000000000000     
  0.500000000000000     
  0.500000000000000     
  0.500000000000000     
  0.500000000000000     
  0.500000000000000     
  0.500000000000000     
  0.500000000000000     
  0.500000000000000     
  0.500000000000000     
  0.500000000000000     
  0.500000000000000     
  0.500000000000000     
  0.500000000000000     
  0.500000000000000     
  0.500000000000000     
  0.500000000000000     
  0.500000000000000     
  0.500000000000000     
  0.500000000000000     
  0.500000000000000     
  0.500000000000000     
  0.500000000000000     
  0.500000000000000     
  0.500000000000000     
  0.500000000000000     
  0.500000000000000     
  0.500000000000000     
  0.500000000000000     
  0.500000000000000     
  0.500000000000000     
  0.500000000000000     
  0.500000000000000     
  0.500000000000000     
  0.500000000000000     
  0.500000000000000     
  0.500000000000000     
  0.500000000000000     
  0.500000000000000     
  0.500000000000000     
  0.500000000000000     
  0.500000000000000     
  0.500000000000000     
  0.500000000000000     
  0.500000000000000     
  0.500000000000000     
  0.500000000000000     
  0.500000000000000     
  0.500000000000000     
  0.500000000000000     
  0.500000000000000     
  0.500000000000000     
  0.500000000000000     
  0.500000000000000     
  0.500000000000000     
  0.500000000000000     
  0.500000000000000     
  0.500000000000000     
  0.500000000000000     
  0.500000000000000     
  0.500000000000000     
  0.500000000000000     
  0.500000000000000     
  0.500000000000000     
  0.500000000000000     
  0.500000000000000     
  0.500000000000000     
  0.500000000000000     
  0.500000000000000     
  0.500000000000000     
  0.500000000000000     
  0.500000000000000     
  0.500000000000000     
  0.500000000000000     
  0.500000000000000     
  0.500000000000000     
  0.500000000000000     
  0.500000000000000     
  0.500000000000000     
  0.500000000000000     
  0.500000000000000     
  0.500000000000000     
  0.500000000000000     
  0.500000000000000     
  0.500000000000000     
  0.500000000000000     
  0.500000000000000     
  0.500000000000000     
  0.500000000000000     
  0.500000000000000     
  0.500000000000000     
  0.500000000000000     
  0.500000000000000     
  0.500000000000000     
  0.500000000000000     
  0.500000000000000     
  0.500000000000000     
  0.500000000000000     
  0.500000000000000     
  0.500000000000000     
  0.500000000000000     
  0.500000000000000     
  0.500000000000000     
  0.500000000000000     
  0.500000000000000     
  0.500000000000000     
  0.500000000000000     
  0.500000000000000     
  0.500000000000000     
  0.500000000000000     
  0.500000000000000     
  0.500000000000000     
  0.500000000000000     
  0.500000000000000     
  0.500000000000000     
  0.500000000000000     
  0.500000000000000     
  0.500000000000000     
  0.500000000000000     
  0.500000000000000     
  0.500000000000000     
  0.500000000000000     
  0.500000000000000     
  0.500000000000000     
  0.500000000000000     
  0.500000000000000     
  0.500000000000000     
  0.500000000000000     
  0.500000000000000     
  0.500000000000000     
  0.500000000000000     
  0.500000000000000     
  0.500000000000000     
  0.500000000000000     
  0.500000000000000     
  0.500000000000000     
  0.500000000000000     
  0.500000000000000     
  0.500000000000000     
  0.500000000000000     
  0.500000000000000     
  0.500000000000000     
  0.500000000000000     
  0.500000000000000     
  0.500000000000000     
  0.500000000000000     
  0.500000000000000     
  0.500000000000000     
  0.500000000000000     
  0.500000000000000     
  0.500000000000000     
  0.500000000000000     
  0.500000000000000     
  0.500000000000000     
  0.500000000000000     
  0.500000000000000     
  0.500000000000000     
  0.500000000000000     
  0.500000000000000     
  0.500000000000000     
  0.500000000000000     
  0.500000000000000     
  0.500000000000000     
  0.500000000000000     
  0.500000000000000     
  0.500000000000000     
  0.500000000000000     
  0.500000000000000     
  0.500000000000000     
  0.500000000000000     
  0.500000000000000     
  0.500000000000000     
  0.500000000000000     
  0.500000000000000     
  0.500000000000000     
  0.500000000000000     
  0.500000000000000     
  0.500000000000000     
  0.500000000000000     
  0.500000000000000     
  0.500000000000000     
  0.500000000000000     
  0.500000000000000     
  0.500000000000000     
  0.500000000000000     
  0.500000000000000     
  0.500000000000000     
  0.500000000000000     
  0.500000000000000     
  0.500000000000000     
  0.500000000000000     
  0.500000000000000     
  0.500000000000000     
  0.500000000000000     
  0.500000000000000     
  0.500000000000000     
  0.500000000000000     
  0.500000000000000     
  0.500000000000000     
  0.500000000000000     
  0.500000000000000     
  0.500000000000000     
  0.500000000000000     
  0.500000000000000     
  0.500000000000000     
  0.500000000000000     
  0.500000000000000     
  0.500000000000000     
  0.500000000000000     
  0.500000000000000     
  0.500000000000000     
  0.500000000000000     
  0.500000000000000     
  0.500000000000000     
  0.500000000000000     
  0.500000000000000     
  0.500000000000000     
  0.500000000000000     
  0.500000000000000     
  0.500000000000000     
  0.500000000000000     
  0.500000000000000     
  0.500000000000000     
  0.500000000000000     
  0.500000000000000     
  0.500000000000000     
  0.500000000000000     
  0.500000000000000     
  0.500000000000000     
  0.500000000000000     
  0.500000000000000     
  0.500000000000000     
  0.500000000000000     
  0.500000000000000     
  0.500000000000000     
  0.500000000000000     
  0.500000000000000     
  0.500000000000000     
  0.500000000000000     
  0.500000000000000     
  0.500000000000000     
  0.500000000000000     
  0.500000000000000     
  0.500000000000000     
  0.500000000000000     
  0.500000000000000     
  0.500000000000000     
  0.500000000000000     
  0.500000000000000     
  0.500000000000000     
  0.500000000000000     
  0.500000000000000     
  0.500000000000000     
  0.500000000000000     
  0.500000000000000     
  0.500000000000000     
  0.500000000000000     
  0.500000000000000     
  0.500000000000000     
  0.500000000000000     
  0.500000000000000     
  0.500000000000000     
  0.500000000000000     
  0.500000000000000     
  0.500000000000000     
  0.500000000000000     
  0.500000000000000     
  0.500000000000000     
  0.500000000000000     
  0.500000000000000     
  0.500000000000000     
  0.500000000000000     
  0.500000000000000     
  0.500000000000000     
  0.500000000000000     
  0.500000000000000     
  0.500000000000000     
  0.500000000000000     
  0.500000000000000     
  0.500000000000000     
  0.500000000000000     
  0.500000000000000     
  0.500000000000000     
  0.500000000000000     
  0.500000000000000     
  0.500000000000000     
  0.500000000000000     
  0.500000000000000     
  0.500000000000000     
  0.500000000000000     
  0.500000000000000     
  0.500000000000000     
  0.500000000000000     
  0.500000000000000     
  0.500000000000000     
  0.500000000000000     
  0.500000000000000     
  0.500000000000000     
  0.500000000000000     
  0.500000000000000     
  0.500000000000000     
  0.500000000000000     
  0.500000000000000     
  0.500000000000000     
  0.500000000000000     
  0.500000000000000     
  0.500000000000000     
  0.500000000000000     
  0.500000000000000     
  0.500000000000000     
  0.500000000000000     
  0.500000000000000     
  0.500000000000000     
  0.500000000000000     
  0.500000000000000     
  0.500000000000000     
  0.500000000000000     
  0.500000000000000     
  0.500000000000000     
  0.500000000000000     
  0.500000000000000     
  0.500000000000000     
  0.500000000000000     
  0.500000000000000     
  0.500000000000000     
  0.500000000000000     
  0.500000000000000     
  0.500000000000000     
  0.500000000000000     
  0.500000000000000     
  0.500000000000000     
  0.500000000000000     
  0.500000000000000     
  0.500000000000000     
  0.500000000000000     
  0.500000000000000     
  0.500000000000000     
  0.500000000000000     
  0.500000000000000     
  0.500000000000000     
  0.500000000000000     
  0.500000000000000     
  0.500000000000000     
  0.500000000000000     
  0.500000000000000     
  0.500000000000000     
  0.500000000000000     
  0.500000000000000     
  0.500000000000000     
  0.500000000000000     
  0.500000000000000     
  0.500000000000000     
  0.500000000000000     
  0.500000000000000     
  0.500000000000000     
  0.500000000000000     
  0.500000000000000     
  0.500000000000000     
  0.500000000000000     
  0.500000000000000     
  0.500000000000000     
  0.500000000000000     
  0.500000000000000     
  0.500000000000000     
  0.500000000000000     
  0.500000000000000     
  0.500000000000000     
  0.500000000000000     
  0.500000000000000     
  0.500000000000000     
  0.500000000000000     
  0.500000000000000     
  0.500000000000000     
  0.500000000000000     
  0.500000000000000     
  0.500000000000000     
  0.500000000000000     
  0.500000000000000     
  0.500000000000000     
  0.500000000000000     
  0.500000000000000     
  0.500000000000000     
  0.500000000000000     
  0.500000000000000     
  0.500000000000000     
  0.500000000000000     
  0.500000000000000     
  0.500000000000000     
  0.500000000000000     
  0.500000000000000     
  0.500000000000000     
  0.500000000000000     
  0.500000000000000     
  0.500000000000000     
  0.500000000000000     
  0.500000000000000     
  0.500000000000000     
  0.500000000000000     
  0.500000000000000     
  0.500000000000000     
  0.500000000000000     
  0.500000000000000     
  0.500000000000000     
  0.500000000000000     
  0.500000000000000     
  0.500000000000000     
  0.500000000000000     
  0.500000000000000     
  0.500000000000000     
  0.500000000000000     
  0.500000000000000     
  0.500000000000000     
  0.500000000000000     
  0.500000000000000     
  0.500000000000000     
  0.500000000000000     
  0.500000000000000     
  0.500000000000000     
  0.500000000000000     
  0.500000000000000     
  0.500000000000000     
  0.500000000000000     
  0.500000000000000     
  0.500000000000000     
  0.500000000000000     
  0.500000000000000     
  0.500000000000000     
  0.500000000000000     
  0.500000000000000     
  0.500000000000000     
  0.500000000000000     
  0.500000000000000     
  0.500000000000000     
  0.500000000000000     
  0.500000000000000     
  0.500000000000000     
  0.500000000000000     
  0.500000000000000     
  0.500000000000000     
  0.500000000000000     
  0.500000000000000     
  0.500000000000000     
  0.500000000000000     
  0.500000000000000     
  0.500000000000000     
  0.500000000000000     
  0.500000000000000     
  0.500000000000000     
  0.500000000000000     
  0.500000000000000     
  0.500000000000000     
  0.500000000000000     
  0.500000000000000     
  0.500000000000000     
  0.500000000000000     
  0.500000000000000     
  0.500000000000000     
  0.500000000000000     
  0.500000000000000     
  0.500000000000000     
  0.500000000000000     
  0.500000000000000     
  0.500000000000000     
  0.500000000000000     
  0.500000000000000     
  0.500000000000000     
  0.500000000000000     
  0.500000000000000     
  0.500000000000000     
  0.500000000000000     
  0.500000000000000     
  0.500000000000000     
  0.500000000000000     
  0.500000000000000     
  0.500000000000000     
  0.500000000000000     
  0.500000000000000     
  0.500000000000000     
  0.500000000000000     
  0.500000000000000     
  0.500000000000000     
  0.500000000000000     
  0.500000000000000     
  0.500000000000000     
  0.500000000000000     
  0.500000000000000     
  0.500000000000000     
  0.500000000000000     
  0.500000000000000     
  0.500000000000000     
  0.500000000000000     
  0.500000000000000     
  0.500000000000000     
  0.500000000000000     
  0.500000000000000     
  0.500000000000000     
  0.500000000000000     
  0.500000000000000     
  0.500000000000000     
  0.500000000000000     
  0.500000000000000     
  0.500000000000000     
  0.500000000000000     
  0.500000000000000     
  0.500000000000000     
  0.500000000000000     
  0.500000000000000     
  0.500000000000000     
  0.500000000000000     
  0.500000000000000     
  0.500000000000000     
  0.500000000000000     
  0.500000000000000     
  0.500000000000000     
  0.500000000000000     
  0.500000000000000     
  0.500000000000000     
  0.500000000000000     
  0.500000000000000     
  0.500000000000000     
  0.500000000000000     
  0.500000000000000     
  0.500000000000000     
  0.500000000000000     
  0.500000000000000     
  0.500000000000000     
  0.500000000000000     
  0.500000000000000     
  0.500000000000000     
  0.500000000000000     
  0.500000000000000     
  0.500000000000000     
  0.500000000000000     
  0.500000000000000     
  0.500000000000000     
  0.500000000000000     
  0.500000000000000     
  0.500000000000000     
  0.500000000000000     
  0.500000000000000     
  0.500000000000000     
  0.500000000000000     
  0.500000000000000     
  0.500000000000000     
  0.500000000000000     
  0.500000000000000     
  0.500000000000000     
  0.500000000000000     
  0.500000000000000     
  0.500000000000000     
  0.500000000000000     
  0.500000000000000     
  0.500000000000000     
  0.500000000000000     
  0.500000000000000     
  0.500000000000000     
  0.500000000000000     
  0.500000000000000     
  0.500000000000000     
  0.500000000000000     
  0.500000000000000     
  0.500000000000000     
  0.500000000000000     
  0.500000000000000     
  0.500000000000000     
  0.500000000000000     
  0.500000000000000     
  0.500000000000000     