# vtk DataFile Version 5.1
Data.vtk
ASCII
DATASET UNSTRUCTURED_GRID
 
POINTS 2000 float
    0.48    1.55    5.50
   11.69    6.17    7.75
   -1.48  -14.42    6.90
    2.45   -1.52   -8.27
  -11.77   -2.49    8.56
    0.09  -13.54   -9.11
    0.95   13.84   -9.48
   -3.34  -11.09   -9.15
   -0.80   11.53   -7.53
   12.47   -7.15    3.01
    0.51    2.71    5.78
    0.43  -14.29   -8.54
    0.12    4.22    5.78
   -1.92  -13.49    5.94
   10.40   -0.92   -5.49
   12.37   -1.58    8.43
    1.54   12.37    8.39
    2.35  -13.16    7.74
   14.39   -1.74    9.48
    1.07  -12.61   -5.64
   -1.34  -14.04   -2.75
   13.09   -6.08    8.54
   -4.32    4.30   -9.41
   10.25  -10.18   -8.27
   11.83   -8.36    5.43
  -11.85   -1.79   -9.12
    3.69  -14.02    9.50
    3.76   -8.28    9.30
  -11.41    4.11    8.78
  -10.85   -9.58    7.04
    1.24  -14.03   -4.76
   12.09   -1.40    4.99
   -1.81   10.64    4.91
    6.09   -8.74   -4.68
   -8.32  -11.67   -7.21
    6.92  -10.89    8.82
    4.25   -6.04    9.08
   -3.69   -8.01    9.29
   -6.05    9.13    8.49
    0.76  -11.90    6.04
    0.82   12.72    7.17
   -9.09  -11.30   -1.98
  -10.69    7.18   -9.50
    3.06  -10.45    4.44
  -13.95   -1.69   -9.32
   -5.91   11.57    9.49
    8.73    4.01    8.75
    1.78    7.90   -7.03
    9.50    9.29    9.49
    3.09  -11.39   -9.42
    8.00  -10.36   -8.69
  -12.30   -6.04    9.46
   -1.71    5.71    9.46
   12.72   -3.40    6.87
   -9.71    1.58    5.61
   13.76   -4.56    4.66
   -2.88   -0.32   -8.64
   -8.85   -6.16    8.32
   -6.80   10.56   -5.94
  -13.04   -0.64   -6.83
   -9.88    7.59   -0.46
  -11.09    5.66    8.76
    7.65    2.83    9.49
   11.96   -8.08    7.08
   12.58   -7.13    5.94
    3.92   -3.94    5.33
    4.26   -5.61   -0.92
   12.30   -3.90    7.63
    5.80  -13.29    0.15
    2.40   -0.16   -9.02
  -12.55   -7.26    2.62
    7.61  -11.87   -8.32
   -2.86  -12.63   -7.57
    3.72    9.18    8.55
   11.96    1.26    9.49
   -4.49  -13.17   -7.39
    3.41   12.49    9.49
   -6.68    7.81   -9.48
    9.79   -0.23    8.51
    1.57   10.40    2.78
    2.39   13.16    9.49
   11.64   -1.37    9.13
   12.78   -6.84    0.39
   -2.84    5.70    8.48
    7.14  -12.62   -8.79
    8.40   -4.69   -8.71
   -9.30  -11.13    0.79
   12.57   -5.12   -1.85
    3.19    3.99    8.11
    7.58   11.09    9.48
   -1.58  -13.36    0.49
    4.22   -8.21   -9.16
  -13.66   -1.61   -3.08
   -6.98  -11.54    7.92
   11.77   -8.45    7.99
    0.85   11.72    7.58
   10.05   -5.33    6.93
   -6.11  -11.46    6.99
    3.43    6.33   -0.64
  -12.17    6.57   -8.13
   -4.78  -13.69    6.07
   14.36   -0.34   -8.58
   -0.97    7.63    9.50
   -0.30   13.24    8.68
  -10.90   -7.31    8.38
   -0.17   10.57   -8.90
   -4.93  -12.40    8.79
    6.66   -6.46   -8.47
   -2.25  -14.32    7.52
    9.87   -6.74    7.56
  -12.94   -6.16    8.67
   11.80   -8.42    0.47
   10.93    6.31   -6.04
   -3.32   10.41   -9.17
   13.37   -5.51    7.33
    9.36    2.35   -9.41
   -6.59   -4.16   -6.71
   -7.39   -2.32   -8.66
   12.24   -7.76    8.54
   -3.86  -13.98    9.44
    7.46    9.40    9.49
   -8.96  -11.39    8.26
    9.08   -2.66    8.32
    1.29    9.31    8.65
  -12.20    2.65    2.53
   -5.27    8.76   -7.67
    8.75    3.99   -9.41
    3.24  -12.23    2.04
    7.73   10.14   -8.99
    2.53   12.64   -9.48
    3.02  -13.01   -4.47
    9.69    0.46    7.52
   -2.16  -11.21    8.35
    2.38   12.36    5.89
  -11.73   -8.52   -9.48
   -5.76  -11.33    9.35
    3.83  -13.43   -7.19
    5.46  -13.43   -5.80
   -5.90   -9.91    9.41
    9.22  -11.17    7.39
    8.69  -10.38   -4.95
   -1.33  -14.44    1.86
   -4.39    0.88   -6.51
   -7.96  -11.50    8.17
   -3.62  -12.43    7.58
    2.01  -13.63    8.63
    0.61  -13.60    7.62
   -5.16    1.17   -8.01
    4.42  -13.20   -8.12
    0.60  -11.72   -9.50
   11.83   -6.39    8.09
  -10.66    1.22    5.77
    2.83    2.27    8.27
   13.96   -2.07    3.78
   -4.21  -10.07   -7.61
   -8.16  -11.60    4.96
   -4.99  -12.29    6.26
  -10.79    4.59    9.41
   -5.79  -13.29    9.17
    8.16    9.53    8.74
   -0.30   -6.41   -7.79
    2.24   13.43    7.12
    8.49   -9.83   -9.45
   14.47   -0.85    4.46
   -3.89    7.86   -9.29
   12.52    2.68    8.65
   -0.20  -12.18   -2.84
   10.13   -9.51   -9.50
   12.66   -4.82    7.44
   -7.54   -2.87   -9.50
   14.31   -2.36    1.62
  -12.39   -3.01   -9.44
   -0.09    7.80    9.02
   -9.81   -6.24   -8.99
   -5.47    6.05    9.31
   13.74   -1.52    4.59
    2.81   -4.51    9.16
  -13.35   -5.47    9.46
   -1.55    3.77    5.98
    6.46   -4.42    6.80
    2.93  -14.12   -6.50
   10.93    0.52    7.49
   11.99    3.71    3.34
    2.30   -9.77   -9.21
    8.24   -9.70    9.36
   14.06   -1.32   -7.94
   -7.07    4.91    5.97
    1.88  -14.37   -7.53
   -5.19  -13.53    8.40
   -4.30  -11.98   -2.37
    8.21   -7.36   -3.10
   -1.34  -13.99    8.49
   13.43   -2.08    9.42
    3.15  -13.81   -9.50
   -4.29    2.47   -8.73
   10.45   -5.53    8.94
   -8.01  -10.44   -9.50
    1.47  -12.14   -9.06
   -9.48   -9.04    2.58
   13.81    3.05   -8.27
    5.67    6.57    9.50
   -1.15   11.53    9.45
   13.25   -5.89   -4.57
   11.08   -0.14   -0.88
   -6.55  -12.94    3.23
   -9.13  -11.26   -6.26
    8.20    3.48   -4.30
    2.04  -11.80    9.10
   14.31    1.05   -8.12
    3.26    4.05   -9.50
  -11.10    2.77    8.42
   -4.57   -9.23   -9.47
    2.72    9.92    8.86
    0.99   -5.09   -5.26
  -11.35    6.10   -7.15
   10.54    3.99    9.12
    8.26    8.18    8.17
   -5.09    4.20    7.18
  -14.30   -2.31   -6.82
   -9.69  -10.79   -2.75
   -3.68    7.85    9.47
   13.40   -4.57    9.11
   -9.26  -11.15   -9.02
    1.51    7.99    7.24
   12.05   -6.13    9.27
  -10.81    4.96    6.88
  -14.40   -1.40   -6.40
   14.50   -0.35   -5.47
   -8.09   -9.63    9.50
   -6.37   10.66   -9.50
   -4.87  -13.66   -6.60
    9.49   -4.76    9.42
    3.74  -10.51   -7.36
   -3.44    8.59    4.74
   -2.69  -11.95   -8.73
  -10.38  -10.07   -2.81
  -13.96   -1.93    9.40
    3.97    8.78    2.09
    3.32  -11.88    7.26
   -6.60   -9.84   -9.29
   10.08   -4.87    8.25
  -11.71    0.61    9.50
   -1.71   -6.10   -7.98
    9.13    6.99   -4.20
    5.21    6.71    8.55
   -6.69  -11.61    5.27
   -4.93   10.07   -6.98
   10.27    8.15   -0.18
   -9.82  -10.45    9.49
    6.29   -0.79    9.48
    4.22    5.32    8.70
   -2.26  -14.32   -9.50
   -5.39   -3.10   -9.47
    5.68  -13.26    7.72
    5.30    8.48   -4.40
    8.57   -8.74    8.67
   -3.51  -12.47   -9.50
    9.52  -10.89    6.28
   -2.06    0.53   -8.93
    5.81    2.77    3.61
   13.68    4.81   -8.67
   -9.75    0.68   -5.18
  -13.71    1.74    8.40
   -9.64   -6.35    9.34
   -8.95  -11.37   -8.07
    7.14  -12.62   -6.74
   11.41   -8.92    7.16
  -13.38   -1.99    8.40
    2.42  -12.36   -9.47
   -7.98   -4.83   -8.29
   10.68   -5.21   -4.71
    9.56   -4.32    7.50
   12.30   -2.99   -9.44
   11.44    8.24   -3.43
   -5.65   10.22   -6.25
    5.76  -11.32    9.18
   12.08   -2.93    7.89
    4.30    9.54    9.50
    8.87   -8.05   -9.26
  -12.38   -7.54   -1.12
   -6.25  -11.78    8.58
   12.94   -6.54    9.45
    8.07   -3.61   -7.11
   -7.73   -5.82    9.39
  -12.16   -7.89    6.80
    6.09    8.62    8.32
   10.72   -7.29    7.35
   11.29   -5.52    9.50
   11.14    0.74   -7.27
   10.08    3.04    9.50
   -5.78   -9.30    7.66
  -13.61   -4.51    9.50
   -7.82    2.51    5.32
   10.72   -3.44   -8.71
    9.48    5.92    8.72
    3.10  -11.83    4.46
    5.89  -13.24   -7.82
   10.82   -3.71    9.09
    4.75  -13.38    7.35
    3.81  -13.99   -8.05
    0.48   -2.70    6.09
    8.38  -11.83    8.66
   10.59    0.19    8.99
   10.99    1.07    8.69
   13.40    4.55    8.49
    5.34    4.63    8.78
   12.11   -2.79    9.46
    8.40  -11.82   -7.67
    4.98   -7.88   -6.11
  -10.76   -8.89    9.49
    5.73   -6.78   -9.44
   12.18   -4.78    8.32
    9.14    8.16   -0.60
  -12.37    6.67    9.13
   -7.39   -4.10   -9.41
   12.77    2.99   -9.36
    5.11   -5.63   -9.50
   14.49    0.04   -7.02
  -11.53   -7.17    7.60
  -10.02    4.88   -7.97
   -1.28   -4.09   -9.49
    1.18   11.65   -8.40
    8.69  -11.25    2.95
    5.10  -10.11   -7.18
   -9.65    3.49   -6.76
    8.83   11.04   -8.02
    4.35    5.21    6.62
    4.98   10.26    9.31
   -3.90  -11.85   -8.82
   -6.21  -11.99    6.07
    2.42   13.35    3.67
    3.59   -5.86    2.82
   -7.38  -12.48   -0.10
   13.70   -3.86   -3.51
   11.20   -6.67    9.50
   -8.88  -11.46   -0.23
  -12.77   -2.02    9.22
   -2.10  -14.35    5.23
  -10.71   -7.88   -0.88
    9.78    4.28    4.67
    8.73   -9.33   -6.00
    1.61   12.47   -7.84
   13.88   -1.20    8.82
   -6.78    0.80    8.42
    2.74    6.50   -9.49
   -1.09   -1.15   -9.37
   -7.63    2.69    9.49
   -0.52   -7.44   -2.88
    6.40  -12.15   -5.34
    0.46  -14.49    8.04
   -7.32  -12.52   -7.82
    2.16   -5.65   -9.44
   -9.39   -9.96   -0.75
  -10.44   -8.87    8.15
   -5.87    6.33   -5.17
    3.39    8.43    5.73
   13.07    5.82   -8.96
    9.47   -9.63    9.50
  -12.46   -0.39    8.51
  -12.83   -1.22   -9.49
   -2.16    9.21    8.91
    7.96  -10.66    9.44
   11.88   -4.84   -7.63
    4.62  -13.56    9.50
   13.98    0.55    9.50
   -9.50    3.07    4.29
   -6.63  -12.86    9.50
    9.85   -7.01   -8.79
   -6.57    4.67   -8.94
  -10.42    1.37    9.50
    6.58  -11.82   -7.87
  -12.44   -5.34   -9.42
   11.64   -0.80   -7.78
    3.77  -13.03    9.48
   -2.94   -4.66    7.28
   -7.65  -12.32    5.49
   12.61    1.61    8.80
   -4.14    3.39   -8.32
    2.89    3.84   -8.38
   -2.91  -13.68   -8.97
   12.15   -3.98   -9.31
    7.30   -9.84    5.74
    3.98    7.38   -1.71
   12.93   -1.08    9.09
   -7.02   -6.46   -8.29
  -10.27   -2.40   -9.29
   13.67   -3.22    4.43
    7.89   -4.92    4.39
   -3.61    2.34   -9.48
   -7.02    9.83   -9.49
   10.00  -10.46    9.37
   12.70   -6.90    8.12
    4.21    9.26   -8.10
   13.75    4.60    9.50
   -4.94    1.88    8.87
   13.61   -2.55    7.76
[...]
POINT_DATA 2000
SCALARS radius float
LOOKUP_TABLE default
  0.500000000000000     
  0.500000000000000     
  0.500000000000000     
  0.500000000000000     
  0.500000000000000     
  0.500000000000000     
  0.500000000000000     
  0.500000000000000     
  0.500000000000000     
  0.500000000000000     
  0.500000000000000     
  0.500000000000000     
  0.500000000000000     
  0.500000000000000     
  0.500000000000000     
  0.500000000000000     
  0.500000000000000     
  0.500000000000000     
  0.500000000000000     
  0.500000000000000     
  0.500000000000000     
  0.500000000000000     
  0.500000000000000     
  0.500000000000000     
  0.500000000000000     
  0.500000000000000     
  0.500000000000000     
  0.500000000000000     
  0.500000000000000     
  0.500000000000000     
  0.500000000000000     
  0.500000000000000     
  0.500000000000000     
  0.500000000000000     
  0.500000000000000     
  0.500000000000000     
  0.500000000000000     
  0.500000000000000     
  0.500000000000000     
  0.500000000000000     
  0.500000000000000     
  0.500000000000000     
  0.500000000000000     
  0.500000000000000     
  0.500000000000000     
  0.500000000000000     
  0.500000000000000     
  0.500000000000000     
  0.500000000000000     
  0.500000000000000     
  0.500000000000000     
  0.500000000000000     
  0.500000000000000     
  0.500000000000000     
  0.500000000000000     
  0.500000000000000     
  0.500000000000000     
  0.500000000000000     
  0.500000000000000     
  0.500000000000000     
  0.500000000000000     
  0.500000000000000     
  0.500000000000000     
  0.500000000000000     
  0.500000000000000     
  0.500000000000000     
  0.500000000000000     
  0.500000000000000     
  0.500000000000000     
  0.500000000000000     
  0.500000000000000     
  0.500000000000000     
  0.500000000000000     
  0.500000000000000     
  0.500000000000000     
  0.500000000000000     
  0.500000000000000     
  0.500000000000000     
  0.500000000000000     
  0.500000000000000     
  0.500000000000000     
  0.500000000000000     
  0.500000000000000     
  0.500000000000000     
  0.500000000000000     
  0.500000000000000     
  0.500000000000000     
  0.500000000000000     
  0.500000000000000     
  0.500000000000000     
  0.500000000000000     
  0.500000000000000     
  0.500000000000000     
  0.500000000000000     
  0.500000000000000     
  0.500000000000000     
  0.500000000000000     
  0.500000000000000     
  0.500000000000000     
  0.500000000000000     
  0.500000000000000     
  0.500000000000000     
  0.500000000000000     
  0.500000000000000     
  0.500000000000000     
  0.500000000000000     
  0.500000000000000     
  0.500000000000000     
  0.500000000000000     
  0.500000000000000     
  0.500000000000000     
  0.500000000000000     
  0.500000000000000     
  0.500000000000000     
  0.500000000000000     
  0.500000000000000     
  0.500000000000000     
  0.500000000000000     
  0.500000000000000     
  0.500000000000000     
  0.500000000000000     
  0.500000000000000     
  0.500000000000000     
  0.500000000000000     
  0.500000000000000     
  0.500000000000000     
  0.500000000000000     
  0.500000000000000     
  0.500000000000000     
  0.500000000000000     
  0.500000000000000     
  0.500000000000000     
  0.500000000000000     
  0.500000000000000     
  0.500000000000000     
  0.500000000000000     
  0.500000000000000     
  0.500000000000000     
  0.500000000000000     
  0.500000000000000     
  0.500000000000000     
  0.500000000000000     
  0.500000000000000     
  0.500000000000000     
  0.500000000000000     
  0.500000000000000     
  0.500000000000000     
  0.500000000000000     
  0.500000000000000     
  0.500000000000000     
  0.500000000000000     
  0.500000000000000     
  0.500000000000000     
  0.500000000000000     
  0.500000000000000     
  0.500000000000000     
  0.500000000000000     
  0.500000000000000     
  0.500000000000000     
  0.500000000000000     
  0.500000000000000     
  0.500000000000000     
  0.500000000000000     
  0.500000000000000     
  0.500000000000000     
  0.500000000000000     
  0.500000000000000     
  0.500000000000000     
  0.500000000000000     
  0.500000000000000     
  0.500000000000000     
  0.500000000000000     
  0.500000000000000     
  0.500000000000000     
  0.500000000000000     
  0.500000000000000     
  0.500000000000000     
  0.500000000000000     
  0.500000000000000     
  0.500000000000000     
  0.500000000000000     
  0.500000000000000     
  0.500000000000000     
  0.500000000000000     
  0.500000000000000     
  0.500000000000000     
  0.500000000000000     
  0.500000000000000     
  0.500000000000000     
  0.500000000000000     
  0.500000000000000     
  0.500000000000000     
  0.500000000000000     
  0.500000000000000     
  0.500000000000000     
  0.500000000000000     
  0.500000000000000     
  0.500000000000000     
  0.500000000000000     
  0.500000000000000     
  0.500000000000000     
  0.500000000000000     
  0.500000000000000     
  0.500000000000000     
  0.500000000000000     
  0.500000000000000     
  0.500000000000000     
  0.500000000000000     
  0.500000000000000     
  0.500000000000000     
  0.500000000000000     
  0.500000000000000     
  0.500000000000000     
  0.500000000000000     
  0.500000000000000     
  0.500000000000000     
  0.500000000000000     
  0.500000000000000     
  0.500000000000000     
  0.500000000000000     
  0.500000000000000     
  0.500000000000000     
  0.500000000000000     
  0.500000000000000     
  0.500000000000000     
  0.500000000000000     
  0.500000000000000     
  0.500000000000000     
  0.500000000000000     
  0.500000000000000     
  0.500000000000000     
  0.500000000000000     
  0.500000000000000     
  0.500000000000000     
  0.500000000000000     
  0.500000000000000     
  0.500000000000000     
  0.500000000000000     
  0.500000000000000     
  0.500000000000000     
  0.500000000000000     
  0.500000000000000     
  0.500000000000000     
  0.500000000000000     
  0.500000000000000     
  0.500000000000000     
  0.500000000000000     
  0.500000000000000     
  0.500000000000000     
  0.500000000000000     
  0.500000000000000     
  0.500000000000000     
  0.500000000000000     
  0.500000000000000     
  0.500000000000000     
  0.500000000000000     
  0.500000000000000     
  0.500000000000000     
  0.500000000000000     
  0.500000000000000     
  0.500000000000000     
  0.500000000000000     
  0.500000000000000     
  0.500000000000000     
  0.500000000000000     
  0.500000000000000     
  0.500000000000000     
  0.500000000000000     
  0.500000000000000     
  0.500000000000000     
  0.500000000000000     
  0.500000000000000     
  0.500000000000000     
  0.500000000000000     
  0.500000000000000     
  0.500000000000000     
  0.500000000000000     
  0.500000000000000     
  0.500000000000000     
  0.500000000000000     
  0.500000000000000     
  0.500000000000000     
  0.500000000000000     
  0.500000000000000     
  0.500000000000000     
  0.500000000000000     
  0.500000000000000     
  0.500000000000000     
  0.500000000000000     
  0.500000000000000     
  0.500000000000000     
  0.500000000000000     
  0.500000000000000     
  0.500000000000000     
  0.500000000000000     
  0.500000000000000     
  0.500000000000000     
  0.500000000000000     
  0.500000000000000     
  0.500000000000000     
  0.500000000000000     
  0.500000000000000     
  0.500000000000000     
  0.500000000000000     
  0.500000000000000     
  0.500000000000000     
  0.500000000000000     
  0.500000000000000     
  0.500000000000000     
  0.500000000000000     
  0.500000000000000     
  0.500000000000000     
  0.500000000000000     
  0.500000000000000     
  0.500000000000000     
  0.500000000000000     
  0.500000000000000     
  0.500000000000000     
  0.500000000000000     
  0.500000000000000     
  0.500000000000000     
  0.500000000000000     
  0.500000000000000     
  0.500000000000000     
  0.500000000000000     
  0.500000000000000     
  0.500000000000000     
  0.500000000000000     
  0.500000000000000     
  0.500000000000000     
  0.500000000000000     
  0.500000000000000     
  0.500000000000000     
  0.500000000000000     
  0.500000000000000     
  0.500000000000000     
  0.500000000000000     
  0.500000000000000     
  0.500000000000000     
  0.500000000000000     
  0.500000000000000     
  0.500000000000000     
  0.500000000000000     
  0.500000000000000     
  0.500000000000000     
  0.500000000000000     
  0.500000000000000     
  0.500000000000000     
  0.500000000000000     
  0.500000000000000     
  0.500000000000000     
  0.500000000000000     
  0.500000000000000     
  0.500000000000000     
  0.500000000000000     
  0.500000000000000     
  0.500000000000000     
  0.500000000000000     
  0.500000000000000     
  0.500000000000000     
  0.500000000000000     
  0.500000000000000     
  0.500000000000000     
  0.500000000000000     
  0.500000000000000     
  0.500000000000000     
  0.500000000000000     
  0.500000000000000     
  0.500000000000000     
  0.500000000000000     
  0.500000000000000     
  0.500000000000000     
  0.500000000000000     
  0.500000000000000     
  0.500000000000000     
  0.500000000000000     
  0.500000000000000     
  0.500000000000000     
  0.500000000000000     
  0.500000000000000     
  0.500000000000000     
  0.500000000000000     
  0.500000000000000     
  0.500000000000000     
  0.500000000000000     
  0.500000000000000     
  0.500000000000000     
  0.500000000000000     
  0.500000000000000     
  0.500000000000000     
  0.500000000000000     
  0.500000000000000     
  0.500000000000000     
  0.500000000000000     
  0.500000000000000     
  0.500000000000000     
  0.500000000000000     
  0.500000000000000     
  0.500000000000000     
  0.500000000000000     
  0.500000000000000     
  0.500000000000000     
  0.500000000000000     
  0.500000000000000     
  0.500000000000000     
  0.500000000000000     
  0.500000000000000     
  0.500000000000000     
  0.500000000000000     
  0.500000000000000     
  0.500000000000000     
  0.500000000000000     
  0.500000000000000     
  0.500000000000000     
  0.500000000000000     
  0.500000000000000     
  0.500000000000000     
  0.500000000000000     
  0.500000000000000     
  0.500000000000000     
  0.500000000000000     
  0.500000000000000     
  0.500000000000000     
  0.500000000000000     
  0.500000000000000     
  0.500000000000000     
  0.500000000000000     
  0.500000000000000     
  0.500000000000000     
  0.500000000000000     
  0.500000000000000     
  0.500000000000000     
  0.500000000000000     
  0.500000000000000     
  0.500000000000000     
  0.500000000000000     
  0.500000000000000     
  0.500000000000000     
  0.500000000000000     
  0.500000000000000     
  0.500000000000000     
  0.500000000000000     
  0.500000000000000     
  0.500000000000000     
  0.500000000000000     
  0.500000000000000     
  0.500000000000000     
  0.500000000000000     
  0.500000000000000     
  0.500000000000000     
  0.500000000000000     
  0.500000000000000     
  0.500000000000000     
  0.500000000000000     
  0.500000000000000     
  0.500000000000000     
  0.500000000000000     
  0.500000000000000     
  0.500000000000000     
  0.500000000000000     
  0.500000000000000     
  0.500000000000000     
  0.500000000000000     
  0.500000000000000     
  0.500000000000000     
  0.500000000000000     
  0.500000000000000     
  0.500000000000000     
  0.500000000000000     
  0.500000000000000     
  0.500000000000000     
  0.500000000000000     
  0.500000000000000     
  0.500000000000000     
  0.500000000000000     
  0.500000000000000     
  0.500000000000000     
  0.500000000000000     
  0.500000000000000     
  0.500000000000000     
  0.500000000000000     
  0.500000000000000     
  0.500000000000000     
  0.500000000000000     
  0.500000000000000     
  0.500000000000000     
  0.500000000000000     
  0.500000000000000     
  0.500000000000000     
  0.500000000000000     
  0.500000000000000     
  0.500000000000000     
  0.500000000000000     
  0.500000000000000     
  0.500000000000000     
  0.500000000000000     
  0.500000000000000     
  0.500000000000000     
  0.500000000000000     
  0.500000000000000     
  0.500000000000000     
  0.500000000000000     
  0.500000000000000     
  0.500000000000000     
  0.500000000000000     
  0.500000000000000     
  0.500000000000000     
  0.500000000000000     
  0.500000000000000     
  0.500000000000000     
  0.500000000000000     
  0.500000000000000     
  0.500000000000000     
  0.500000000000000     
  0.500000000000000     
  0.500000000000000     
  0.500000000000000     
  0.500000000000000     
  0.500000000000000     
  0.500000000000000     
  0.500000000000000     
  0.500000000000000     
  0.500000000000000     
  0.500000000000000     
  0.500000000000000     
  0.500000000000000     
  0.500000000000000     
  0.500000000000000     
  0.500000000000000     
  0.500000000000000     
  0.500000000000000     
  0.500000000000000     
  0.500000000000000     
  0.500000000000000     
  0.500000000000000     
  0.500000000000000     
  0.500000000000000     
  0.500000000000000     
  0.500000000000000     
  0.500000000000000     
  0.500000000000000     
  0.500000000000000     
  0.500000000000000     
  0.500000000000000     
  0.500000000000000     
  0.500000000000000     
  0.500000000000000     
  0.500000000000000     
  0.500000000000000     
  0.500000000000000     
  0.500000000000000     
  0.500000000000000     
  0.500000000000000     
  0.500000000000000     
  0.500000000000000     
  0.500000000000000     
  0.500000000000000     
  0.500000000000000     
  0.500000000000000     
  0.500000000000000     
  0.500000000000000     
  0.500000000000000     
  0.500000000000000     
  0.500000000000000     
  0.500000000000000     
  0.500000000000000     
  0.500000000000000     
  0.500000000000000     
  0.500000000000000     
  0.500000000000000     
  0.500000000000000     
  0.500000000000000     
  0.500000000000000     
  0.500000000000000     
  0.500000000000000     
  0.500000000000000     
  0.500000000000000     
  0.500000000000000     
  0.500000000000000     
  0.500000000000000     
  0.500000000000000     
  0.500000000000000     
  0.500000000000000     
  0.500000000000000     
  0.500000000000000     
  0.500000000000000     
  0.500000000000000     
  0.500000000000000     
  0.500000000000000     
  0.500000000000000     
  0.500000000000000     
  0.500000000000000     
  0.500000000000000     
  0.500000000000000     
  0.500000000000000     
  0.500000000000000     
  0.500000000000000     
  0.500000000000000     
  0.500000000000000     
  0.500000000000000     
  0.500000000000000     
  0.500000000000000     
  0.500000000000000     
  0.500000000000000     
  0.500000000000000     
  0.500000000000000     
  0.500000000000000     
  0.500000000000000     
  0.500000000000000     
  0.500000000000000     
  0.500000000000000     
  0.500000000000000     
  0.500000000000000     
  0.500000000000000     
  0.500000000000000     
  0.500000000000000     
  0.500000000000000     
  0.500000000000000     
  0.500000000000000     
  0.500000000000000     
  0.500000000000000     
  0.500000000000000     
  0.500000000000000     
  0.500000000000000     
  0.500000000000000     
  0.500000000000000     
  0.500000000000000     
  0.500000000000000     
  0.500000000000000     
  0.500000000000000     
  0.500000000000000     
  0.500000000000000     
  0.500000000000000     
  0.500000000000000     
  0.500000000000000     
  0.500000000000000     
  0.500000000000000     
  0.500000000000000     
  0.500000000000000     
  0.500000000000000     
  0.500000000000000     
  0.500000000000000     
  0.500000000000000     
  0.500000000000000     
  0.500000000000000     
  0.500000000000000     
  0.500000000000000     
  0.500000000000000     
  0.500000000000000     
  0.500000000000000     
  0.500000000000000     
  0.500000000000000     
  0.500000000000000     
  0.500000000000000     
  0.500000000000000     
  0.500000000000000     
  0.500000000000000     
  0.500000000000000     
  0.500000000000000     
  0.500000000000000     
  0.500000000000000     
  0.500000000000000     
  0.500000000000000     
  0.500000000000000     
  0.500000000000000     
  0.500000000000000     
  0.500000000000000     
  0.500000000000000     
  0.500000000000000     
  0.500000000000000     
  0.500000000000000     
  0.500000000000000     
  0.500000000000000     
  0.500000000000000     
  0.500000000000000     
  0.500000000000000     
  0.500000000000000     
  0.500000000000000     
  0.500000000000000     
  0.500000000000000     
  0.500000000000000     
  0.500000000000000     
  0.500000000000000     
  0.500000000000000     
  0.500000000000000     
  0.500000000000000     
  0.500000000000000     
  0.500000000000000     
  0.500000000000000     
  0.500000000000000     
  0.500000000000000     
  0.500000000000000     
  0.500000000000000     
  0.500000000000000     
  0.500000000000000     
  0.500000000000000     
  0.500000000000000     
  0.500000000000000     
  0.500000000000000     
  0.500000000000000     
  0.500000000000000     
  0.500000000000000     
  0.500000000000000     
  0.500000000000000     
  0.500000000000000     
  0.500000000000000     
  0.500000000000000     
  0.500000000000000     
  0.500000000000000     
  0.500000000000000     
  0.500000000000000     
  0.500000000000000     
  0.500000000000000     
  0.500000000000000     
  0.500000000000000     
  0.500000000000000     
  0.500000000000000     
  0.500000000000000     
  0.500000000000000     
  0.500000000000000     
  0.500000000000000     
  0.500000000000000     
  0.500000000000000     
  0.500000000000000     
  0.500000000000000     
  0.500000000000000     
  0.500000000000000     
  0.500000000000000     
  0.500000000000000     
  0.500000000000000     
  0.500000000000000     
  0.500000000000000     
  0.500000000000000     
  0.500000000000000     
  0.500000000000000     
  0.500000000000000     
  0.500000000000000     
  0.500000000000000     
  0.500000000000000     
  0.500000000000000     
  0.500000000000000     
  0.500000000000000     
  0.500000000000000     
  0.500000000000000     
  0.500000000000000     
  0.500000000000000     
  0.500000000000000     
  0.500000000000000     
  0.500000000000000     
  0.500000000000000     
  0.500000000000000     
  0.500000000000000     
  0.500000000000000     
  0.500000000000000     
  0.500000000000000     
  0.500000000000000     
  0.500000000000000     
  0.500000000000000     
  0.500000000000000     
  0.500000000000000     
  0.500000000000000     
  0.500000000000000     
  0.500000000000000     
  0.500000000000000     
  0.500000000000000     
  0.500000000000000     
  0.500000000000000     
  0.500000000000000     
  0.500000000000000     
  0.500000000000000     
  0.500000000000000     
  0.500000000000000     
  0.500000000000000     
  0.500000000000000     
  0.500000000000000     
  0.500000000000000     
  0.500000000000000     
  0.500000000000000     
  0.500000000000000     
  0.500000000000000     
  0.500000000000000     
  0.500000000000000     
  0.500000000000000     
  0.500000000000000     
  0.500000000000000     
  0.500000000000000     
  0.500000000000000     
  0.500000000000000     
  0.500000000000000     
  0.500000000000000     
  0.500000000000000     
  0.500000000000000     
  0.500000000000000     
  0.500000000000000     
  0.500000000000000     
  0.500000000000000     
  0.500000000000000     