# vtk DataFile Version 5.1
Data.vtk
ASCII
DATASET UNSTRUCTURED_GRID
 
POINTS 2000 float
    1.46  -13.56    0.66
    9.78   -9.52   -0.53
   -0.45  -14.49    5.73
    1.20  -13.62   -1.76
   -3.78  -11.77    7.26
    0.61  -13.72   -8.76
    4.22  -10.49   -8.54
   -1.16  -13.18   -8.61
    4.85  -10.64   -3.94
    7.54  -11.28    0.85
   -1.58  -13.17   -1.01
    0.78  -14.48   -8.14
    4.18  -12.64    0.30
    0.52  -13.72    2.98
    3.33  -12.63   -0.89
    6.52  -10.50    2.04
    5.48  -10.31    5.49
    2.03  -13.68    7.59
   12.03   -8.10    8.06
    1.86  -13.54   -3.88
    1.79  -14.38   -1.51
   10.50  -10.00    6.89
   -1.49  -11.51   -8.76
    8.47  -11.77   -7.33
    6.63  -12.03    1.67
   -2.47  -11.87   -0.15
    3.07  -14.17    9.50
    1.16  -12.41    7.43
   -6.48  -11.66    1.69
   -5.59  -13.38    4.18
    1.95  -14.36   -3.31
    3.65  -10.86   -0.89
    1.94  -10.89    4.89
    3.78  -13.25   -3.18
   -4.31  -13.85   -3.73
    5.58  -12.62    8.01
    0.16  -13.04    7.28
   -0.85  -12.90    5.96
    0.60  -11.41    0.88
    1.30  -13.84    3.67
    8.42   -8.39    4.92
   -3.01  -14.18   -0.25
   -4.53  -11.72   -6.04
    1.83  -14.38    2.12
   -9.11  -11.28   -7.07
   -0.06  -10.57    8.05
    5.54  -10.74    4.59
    3.36  -12.32   -5.61
    9.34   -8.39    6.82
    3.49  -12.04   -9.50
    6.09  -12.23   -8.44
   -7.47  -11.46    9.50
    2.20  -11.20    6.68
    7.69  -11.11    2.77
    0.86  -11.27    4.99
    6.40  -10.31   -1.63
    1.07  -11.55   -4.42
   -2.35  -12.32    3.44
   -6.52  -12.95   -0.56
   -5.34  -12.28   -2.75
   -4.00  -12.53   -0.58
   -4.05  -11.65    1.17
    3.20  -11.16    6.88
    9.05  -11.33    4.42
    8.37  -11.84    2.72
    5.33  -11.85    0.48
   -0.10  -14.50    0.01
    7.61  -11.53    4.12
    4.35  -13.55    0.68
    3.92  -12.94   -6.15
   -9.73  -10.75    7.59
    6.97  -12.71   -7.50
    0.89  -13.69   -3.65
    4.67  -10.29    4.36
    7.99   -9.28    4.77
   -1.68  -14.40   -6.06
    4.98   -9.59    5.00
   -0.83  -10.90   -8.33
    6.27  -11.45    3.56
    5.38   -9.90   -4.36
    6.92   -9.00    7.21
    6.19  -10.24    6.35
    5.14  -12.72    0.02
    1.77  -10.98   -8.41
    6.88  -12.76   -8.74
    5.17  -11.97   -7.13
   -3.97  -13.95   -0.06
    1.32  -10.77   -4.99
   -0.19  -11.92    1.21
    8.79   -8.66    7.77
    0.77  -14.48    0.50
    2.95  -11.60   -7.47
   -4.82  -12.77   -2.04
   -3.67  -13.11    5.84
    9.02  -11.35    5.77
    0.81  -11.55   -0.28
    2.34  -11.90    3.59
   -2.00  -12.63    4.53
    9.33  -11.10   -0.41
   -6.22  -12.06   -1.90
   -2.71  -14.25    4.23
    9.94   -9.55   -4.43
    1.81  -10.97    3.17
    4.41  -10.20    5.55
   -1.79  -12.20    2.60
    2.20  -11.31   -6.87
   -3.69  -13.24    8.47
    3.31  -12.43   -3.53
   -1.54  -14.42    7.02
    5.45  -11.96    3.80
   -6.50  -11.86    7.27
    5.38  -11.58   -1.78
   11.19   -9.22   -3.97
    3.23  -10.69   -6.31
    9.78  -10.71    4.12
    5.95  -10.56   -7.02
   -3.66  -14.03   -1.91
   -2.57  -12.64   -2.92
    9.84  -10.65    7.24
   -3.22  -14.14    9.45
    8.42   -8.76    6.69
   -5.99  -13.20    7.57
    6.76  -10.86    7.04
    2.92  -10.96    2.38
   -6.21  -12.31    0.68
   -1.19  -11.16   -4.62
    8.11   -9.85   -7.18
    1.52  -14.42    1.17
   10.39   -9.13   -9.05
    6.55   -9.77   -7.17
    2.79  -13.59   -4.23
    5.80  -11.16    2.72
    1.55  -11.67    1.06
    3.88  -10.20    1.07
   -7.10  -12.64   -9.23
   -3.39  -12.31    8.28
    3.05  -14.18   -6.81
    4.49  -13.79   -5.38
   -1.63  -11.82    9.50
    6.98  -12.71    6.05
    5.21  -12.57   -3.74
    1.20  -14.45    2.89
    2.10  -13.10   -2.63
   -4.44  -13.02    6.48
   -1.81  -12.70    6.18
    1.58  -13.72    8.48
    0.95  -13.46    6.28
   -1.55  -11.98   -4.18
    3.64  -13.37   -7.84
    1.93  -12.67   -8.85
    8.41  -10.83    6.49
   -4.65  -12.45    1.14
    0.97  -11.98    4.30
    4.58  -10.98   -2.02
   -0.46  -12.79   -5.07
   -4.09  -13.91    2.92
   -2.21  -13.57    4.77
   -2.03  -11.22    5.46
   -4.54  -13.77    8.53
    9.59   -8.95    3.85
    2.81  -11.99   -4.76
    0.42  -10.48    6.86
    6.22  -11.25   -8.56
    9.10  -10.48    0.95
   -1.29  -10.76   -9.39
    7.94   -9.99    1.72
    0.71  -13.93   -0.33
    8.08  -10.91   -8.79
    5.07  -11.07   -0.23
   -3.33  -12.15   -6.36
    9.78  -10.68   -1.20
   -6.67  -12.00   -8.53
    3.77  -10.23    9.30
   -3.75  -12.00   -5.47
   -0.18  -11.82    3.34
    6.64  -10.51   -0.68
    1.11  -12.22    8.79
   -7.85  -11.30    7.99
    2.81  -11.19   -1.31
    3.38  -12.74    2.50
    2.88  -14.21   -5.76
    6.16  -10.32    1.13
    9.67   -9.75   -1.57
    2.39  -12.00   -9.50
    6.41  -10.99    9.50
   10.22  -10.26   -5.08
   -1.00  -12.69    0.10
    1.72  -14.40   -6.77
   -3.83  -13.99    7.81
   -0.92  -14.47   -1.86
    5.00  -12.51   -1.85
   -0.98  -13.87    7.97
   10.56   -8.97    9.40
    3.21  -13.93   -9.50
    1.78  -12.09   -5.17
    6.12  -11.41    7.60
   -3.71  -12.79   -7.70
    2.53  -13.52   -7.36
   -1.39  -13.59   -0.12
   10.97   -9.49   -2.99
    4.97  -10.59    6.30
    1.99  -10.46    7.32
    9.15  -11.25   -4.01
    5.22  -11.85   -0.83
   -2.17  -14.28    2.58
   -4.54  -12.82   -3.00
    4.63  -10.33   -5.30
    2.07  -12.57    8.65
    7.25  -10.05   -5.52
    6.26  -10.55   -9.28
   -3.29  -11.10    8.18
   -0.96  -12.62   -9.50
    7.14   -8.96    5.22
   -0.77  -13.51   -2.11
   -5.44  -11.78   -5.31
    9.34   -8.95    1.65
    6.71   -9.51    0.96
   -0.40  -12.83    4.79
   -7.75  -12.25   -6.16
   -4.16  -13.89   -1.05
    0.88  -11.01    6.15
    9.86   -9.80    7.76
   -5.25  -12.87   -7.31
    1.27  -11.81   -1.18
    9.66  -10.01    8.75
   -2.12  -10.84    9.50
   -8.09  -12.04   -4.84
   10.07  -10.43   -3.31
   -3.96  -12.26    9.10
   -0.09  -10.70   -9.44
   -1.60  -14.41   -5.04
    4.53  -11.78    5.21
    2.35  -13.62   -6.37
   -0.27  -11.25    6.29
   -0.57  -13.84   -7.15
   -4.62  -13.74   -1.98
   -6.08  -12.35    2.82
    7.57   -9.76    0.52
    2.60  -13.55    4.77
   -1.80  -13.07   -7.59
    4.77  -11.42    4.31
   -4.64  -11.27    7.27
    0.95  -13.02   -9.39
    7.74   -9.52   -9.37
    5.09  -11.11    3.42
   -1.93  -13.10    2.20
    3.26  -10.37   -8.27
    8.90  -10.52   -1.96
   -7.86  -12.18    8.93
    2.75  -11.66    8.90
    2.99  -12.01    1.30
   -1.56  -14.42   -9.50
   -1.51  -12.34   -8.20
    4.70  -13.72    7.14
   12.19   -7.84    5.97
    5.53  -11.95    5.77
   -1.84  -13.18   -9.34
    6.96  -12.72    4.49
    2.06  -12.95   -5.62
    4.04  -12.78   -1.79
   11.42   -8.93   -6.89
   -4.77  -12.16   -7.81
   -7.45  -12.44    2.89
   -3.49  -12.29    5.30
   -4.40  -13.76   -5.85
    6.08  -13.15   -6.12
    8.44  -11.79    5.08
   -5.13  -11.48    1.72
    2.92  -12.53   -8.84
   -3.34  -12.04   -8.84
    4.75  -12.73   -0.91
    1.67  -12.13    2.88
   10.26  -10.24   -7.86
    9.38   -8.88   -8.34
   -2.77  -10.85   -6.45
    4.07  -12.10    7.94
    8.24  -10.95    3.59
    6.49   -9.51    7.95
    5.98  -11.52   -6.76
   -3.78  -13.02    0.27
   -2.75  -13.03    6.23
   10.63   -9.86    8.61
    5.29  -12.50   -6.27
   -0.96  -11.07    9.50
   -5.11  -12.97    2.19
    3.32  -10.90    0.52
    3.68  -11.83    0.60
    8.88   -9.71    7.95
    5.61  -11.46   -4.08
    6.37   -9.86    5.44
   -0.71  -13.63    5.29
   -8.91  -11.44    7.71
    1.69  -12.41   -1.87
    6.22  -11.29   -4.86
    7.72   -9.46    6.82
    3.07  -13.59   -0.52
    5.23  -13.52   -7.98
    7.19  -10.06    7.46
    3.93  -13.96    6.55
    3.05  -14.18   -7.93
    2.67  -12.82    1.80
    7.04  -12.68    7.49
    6.76  -10.81    2.96
    5.11  -10.77   -1.19
   11.37   -8.05    2.14
    3.79  -11.83    8.86
    7.22   -9.90    4.91
    7.00  -12.70   -6.49
    2.59  -12.80   -1.65
   -6.87  -12.10    9.00
    3.92  -11.85   -7.48
    8.34  -10.21    4.87
    7.54  -10.39   -0.26
   -7.93  -12.14    0.00
    0.67  -11.66   -7.69
    6.56  -10.24   -3.70
    3.73  -11.15   -9.11
    9.61   -9.55   -3.38
   -5.77  -13.30    2.86
   -3.82  -11.79   -7.69
    1.25  -12.29   -8.19
    3.15  -11.02   -4.05
    3.47  -13.05    1.24
    3.22  -12.91   -4.82
   -4.51  -11.52   -4.45
   11.61   -8.69   -1.62
    4.52  -12.21    3.53
    8.33   -9.03    5.68
   -1.03  -12.97   -6.96
   -2.96  -13.29    4.05
    2.96  -11.31   -2.30
    0.19  -13.67    0.54
   -2.02  -14.36   -0.26
    4.31  -11.84   -1.57
    8.70  -10.31    8.75
   -2.18  -13.44    0.48
   -6.38  -10.89    7.04
   -1.14  -14.46    4.08
   -2.83  -12.74    0.17
    8.45  -10.66   -0.58
    4.63  -11.62   -3.97
   10.54   -8.61   -7.24
   10.10   -9.64    6.05
    0.30  -12.15    5.03
    4.47  -10.97   -7.70
    1.45  -12.00   -7.07
   -0.47  -10.82    7.17
   -0.62  -11.79    0.31
    3.93  -12.95   -4.12
    0.45  -14.49    7.43
   -4.13  -13.90   -4.90
    1.40  -12.14   -9.50
   -3.39  -13.33   -0.60
   -5.09  -12.52    4.15
    2.14  -11.92   -6.09
    4.17  -10.77    3.64
    6.97  -10.03   -2.81
    8.15  -11.08    9.07
   -4.94  -11.57    5.09
   -7.18  -12.59   -7.02
    1.93  -10.49    9.50
    6.77  -11.92    9.50
    6.97  -10.84   -4.38
    4.03  -13.93    9.50
   12.16   -7.90    9.49
   -0.94  -11.35    2.89
   -5.70  -13.33    9.32
    7.62  -11.44   -7.75
   -0.52  -11.79   -5.00
   -2.19  -11.06    7.96
    5.32  -12.96   -7.16
   -6.42  -11.96   -9.50
    7.50  -11.49   -3.83
    3.34  -13.21    9.50
   -3.06  -12.21   -1.50
   -3.67  -13.98    4.32
    8.49   -9.72    4.02
    2.19  -11.05   -3.79
    4.78  -12.12   -4.82
   -1.40  -13.91   -7.97
    8.60   -9.97   -9.12
    1.81  -11.51   -0.39
    7.14  -10.76   -2.14
    9.30  -10.03    6.68
   -1.68  -12.27   -2.65
   -3.65  -11.35   -9.50
    6.04  -11.13   -1.18
    7.99  -12.10    0.27
    3.77  -11.51   -3.45
    0.12  -10.89   -8.02
    8.19  -11.96    8.61
    9.91  -10.59    5.80
    4.26  -11.03   -4.69
   12.33   -7.63    5.00
    0.49  -11.80    6.63
    9.40   -9.91    3.66
[...]
POINT_DATA 2000
SCALARS radius float
LOOKUP_TABLE default
  0.500000000000000     
  0.500000000000000     
  0.500000000000000     
  0.500000000000000     
  0.500000000000000     
  0.500000000000000     
  0.500000000000000     
  0.500000000000000     
  0.500000000000000     
  0.500000000000000     
  0.500000000000000     
  0.500000000000000     
  0.500000000000000     
  0.500000000000000     
  0.500000000000000     
  0.500000000000000     
  0.500000000000000     
  0.500000000000000     
  0.500000000000000     
  0.500000000000000     
  0.500000000000000     
  0.500000000000000     
  0.500000000000000     
  0.500000000000000     
  0.500000000000000     
  0.500000000000000     
  0.500000000000000     
  0.500000000000000     
  0.500000000000000     
  0.500000000000000     
  0.500000000000000     
  0.500000000000000     
  0.500000000000000     
  0.500000000000000     
  0.500000000000000     
  0.500000000000000     
  0.500000000000000     
  0.500000000000000     
  0.500000000000000     
  0.500000000000000     
  0.500000000000000     
  0.500000000000000     
  0.500000000000000     
  0.500000000000000     
  0.500000000000000     
  0.500000000000000     
  0.500000000000000     
  0.500000000000000     
  0.500000000000000     
  0.500000000000000     
  0.500000000000000     
  0.500000000000000     
  0.500000000000000     
  0.500000000000000     
  0.500000000000000     
  0.500000000000000     
  0.500000000000000     
  0.500000000000000     
  0.500000000000000     
  0.500000000000000     
  0.500000000000000     
  0.500000000000000     
  0.500000000000000     
  0.500000000000000     
  0.500000000000000     
  0.500000000000000     
  0.500000000000000     
  0.500000000000000     
  0.500000000000000     
  0.500000000000000     
  0.500000000000000     
  0.500000000000000     
  0.500000000000000     
  0.500000000000000     
  0.500000000000000     
  0.500000000000000     
  0.500000000000000     
  0.500000000000000     
  0.500000000000000     
  0.500000000000000     
  0.500000000000000     
  0.500000000000000     
  0.500000000000000     
  0.500000000000000     
  0.500000000000000     
  0.500000000000000     
  0.500000000000000     
  0.500000000000000     
  0.500000000000000     
  0.500000000000000     
  0.500000000000000     
  0.500000000000000     
  0.500000000000000     
  0.500000000000000     
  0.500000000000000     
  0.500000000000000     
  0.500000000000000     
  0.500000000000000     
  0.500000000000000     
  0.500000000000000     
  0.500000000000000     
  0.500000000000000     
  0.500000000000000     
  0.500000000000000     
  0.500000000000000     
  0.500000000000000     
  0.500000000000000     
  0.500000000000000     
  0.500000000000000     
  0.500000000000000     
  0.500000000000000     
  0.500000000000000     
  0.500000000000000     
  0.500000000000000     
  0.500000000000000     
  0.500000000000000     
  0.500000000000000     
  0.500000000000000     
  0.500000000000000     
  0.500000000000000     
  0.500000000000000     
  0.500000000000000     
  0.500000000000000     
  0.500000000000000     
  0.500000000000000     
  0.500000000000000     
  0.500000000000000     
  0.500000000000000     
  0.500000000000000     
  0.500000000000000     
  0.500000000000000     
  0.500000000000000     
  0.500000000000000     
  0.500000000000000     
  0.500000000000000     
  0.500000000000000     
  0.500000000000000     
  0.500000000000000     
  0.500000000000000     
  0.500000000000000     
  0.500000000000000     
  0.500000000000000     
  0.500000000000000     
  0.500000000000000     
  0.500000000000000     
  0.500000000000000     
  0.500000000000000     
  0.500000000000000     
  0.500000000000000     
  0.500000000000000     
  0.500000000000000     
  0.500000000000000     
  0.500000000000000     
  0.500000000000000     
  0.500000000000000     
  0.500000000000000     
  0.500000000000000     
  0.500000000000000     
  0.500000000000000     
  0.500000000000000     
  0.500000000000000     
  0.500000000000000     
  0.500000000000000     
  0.500000000000000     
  0.500000000000000     
  0.500000000000000     
  0.500000000000000     
  0.500000000000000     
  0.500000000000000     
  0.500000000000000     
  0.500000000000000     
  0.500000000000000     
  0.500000000000000     
  0.500000000000000     
  0.500000000000000     
  0.500000000000000     
  0.500000000000000     
  0.500000000000000     
  0.500000000000000     
  0.500000000000000     
  0.500000000000000     
  0.500000000000000     
  0.500000000000000     
  0.500000000000000     
  0.500000000000000     
  0.500000000000000     
  0.500000000000000     
  0.500000000000000     
  0.500000000000000     
  0.500000000000000     
  0.500000000000000     
  0.500000000000000     
  0.500000000000000     
  0.500000000000000     
  0.500000000000000     
  0.500000000000000     
  0.500000000000000     
  0.500000000000000     
  0.500000000000000     
  0.500000000000000     
  0.500000000000000     
  0.500000000000000     
  0.500000000000000     
  0.500000000000000     
  0.500000000000000     
  0.500000000000000     
  0.500000000000000     
  0.500000000000000     
  0.500000000000000     
  0.500000000000000     
  0.500000000000000     
  0.500000000000000     
  0.500000000000000     
  0.500000000000000     
  0.500000000000000     
  0.500000000000000     
  0.500000000000000     
  0.500000000000000     
  0.500000000000000     
  0.500000000000000     
  0.500000000000000     
  0.500000000000000     
  0.500000000000000     
  0.500000000000000     
  0.500000000000000     
  0.500000000000000     
  0.500000000000000     
  0.500000000000000     
  0.500000000000000     
  0.500000000000000     
  0.500000000000000     
  0.500000000000000     
  0.500000000000000     
  0.500000000000000     
  0.500000000000000     
  0.500000000000000     
  0.500000000000000     
  0.500000000000000     
  0.500000000000000     
  0.500000000000000     
  0.500000000000000     
  0.500000000000000     
  0.500000000000000     
  0.500000000000000     
  0.500000000000000     
  0.500000000000000     
  0.500000000000000     
  0.500000000000000     
  0.500000000000000     
  0.500000000000000     
  0.500000000000000     
  0.500000000000000     
  0.500000000000000     
  0.500000000000000     
  0.500000000000000     
  0.500000000000000     
  0.500000000000000     
  0.500000000000000     
  0.500000000000000     
  0.500000000000000     
  0.500000000000000     
  0.500000000000000     
  0.500000000000000     
  0.500000000000000     
  0.500000000000000     
  0.500000000000000     
  0.500000000000000     
  0.500000000000000     
  0.500000000000000     
  0.500000000000000     
  0.500000000000000     
  0.500000000000000     
  0.500000000000000     
  0.500000000000000     
  0.500000000000000     
  0.500000000000000     
  0.500000000000000     
  0.500000000000000     
  0.500000000000000     
  0.500000000000000     
  0.500000000000000     
  0.500000000000000     
  0.500000000000000     
  0.500000000000000     
  0.500000000000000     
  0.500000000000000     
  0.500000000000000     
  0.500000000000000     
  0.500000000000000     
  0.500000000000000     
  0.500000000000000     
  0.500000000000000     
  0.500000000000000     
  0.500000000000000     
  0.500000000000000     
  0.500000000000000     
  0.500000000000000     
  0.500000000000000     
  0.500000000000000     
  0.500000000000000     
  0.500000000000000     
  0.500000000000000     
  0.500000000000000     
  0.500000000000000     
  0.500000000000000     
  0.500000000000000     
  0.500000000000000     
  0.500000000000000     
  0.500000000000000     
  0.500000000000000     
  0.500000000000000     
  0.500000000000000     
  0.500000000000000     
  0.500000000000000     
  0.500000000000000     
  0.500000000000000     
  0.500000000000000     
  0.500000000000000     
  0.500000000000000     
  0.500000000000000     
  0.500000000000000     
  0.500000000000000     
  0.500000000000000     
  0.500000000000000     
  0.500000000000000     
  0.500000000000000     
  0.500000000000000     
  0.500000000000000     
  0.500000000000000     
  0.500000000000000     
  0.500000000000000     
  0.500000000000000     
  0.500000000000000     
  0.500000000000000     
  0.500000000000000     
  0.500000000000000     
  0.500000000000000     
  0.500000000000000     
  0.500000000000000     
  0.500000000000000     
  0.500000000000000     
  0.500000000000000     
  0.500000000000000     
  0.500000000000000     
  0.500000000000000     
  0.500000000000000     
  0.500000000000000     
  0.500000000000000     
  0.500000000000000     
  0.500000000000000     
  0.500000000000000     
  0.500000000000000     
  0.500000000000000     
  0.500000000000000     
  0.500000000000000     
  0.500000000000000     
  0.500000000000000     
  0.500000000000000     
  0.500000000000000     
  0.500000000000000     
  0.500000000000000     
  0.500000000000000     
  0.500000000000000     
  0.500000000000000     
  0.500000000000000     
  0.500000000000000     
  0.500000000000000     
  0.500000000000000     
  0.500000000000000     
  0.500000000000000     
  0.500000000000000     
  0.500000000000000     
  0.500000000000000     
  0.500000000000000     
  0.500000000000000     
  0.500000000000000     
  0.500000000000000     
  0.500000000000000     
  0.500000000000000     
  0.500000000000000     
  0.500000000000000     
  0.500000000000000     
  0.500000000000000     
  0.500000000000000     
  0.500000000000000     
  0.500000000000000     
  0.500000000000000     
  0.500000000000000     
  0.500000000000000     
  0.500000000000000     
  0.500000000000000     
  0.500000000000000     
  0.500000000000000     
  0.500000000000000     
  0.500000000000000     
  0.500000000000000     
  0.500000000000000     
  0.500000000000000     
  0.500000000000000     
  0.500000000000000     
  0.500000000000000     
  0.500000000000000     
  0.500000000000000     
  0.500000000000000     
  0.500000000000000     
  0.500000000000000     
  0.500000000000000     
  0.500000000000000     
  0.500000000000000     
  0.500000000000000     
  0.500000000000000     
  0.500000000000000     
  0.500000000000000     
  0.500000000000000     
  0.500000000000000     
  0.500000000000000     
  0.500000000000000     
  0.500000000000000     
  0.500000000000000     
  0.500000000000000     
  0.500000000000000     
  0.500000000000000     
  0.500000000000000     
  0.500000000000000     
  0.500000000000000     
  0.500000000000000     
  0.500000000000000     
  0.500000000000000     
  0.500000000000000     
  0.500000000000000     
  0.500000000000000     
  0.500000000000000     
  0.500000000000000     
  0.500000000000000     
  0.500000000000000     
  0.500000000000000     
  0.500000000000000     
  0.500000000000000     
  0.500000000000000     
  0.500000000000000     
  0.500000000000000     
  0.500000000000000     
  0.500000000000000     
  0.500000000000000     
  0.500000000000000     
  0.500000000000000     
  0.500000000000000     
  0.500000000000000     
  0.500000000000000     
  0.500000000000000     
  0.500000000000000     
  0.500000000000000     
  0.500000000000000     
  0.500000000000000     
  0.500000000000000     
  0.500000000000000     
  0.500000000000000     
  0.500000000000000     
  0.500000000000000     
  0.500000000000000     
  0.500000000000000     
  0.500000000000000     
  0.500000000000000     
  0.500000000000000     
  0.500000000000000     
  0.500000000000000     
  0.500000000000000     
  0.500000000000000     
  0.500000000000000     
  0.500000000000000     
  0.500000000000000     
  0.500000000000000     
  0.500000000000000     
  0.500000000000000     
  0.500000000000000     
  0.500000000000000     
  0.500000000000000     
  0.500000000000000     
  0.500000000000000     
  0.500000000000000     
  0.500000000000000     
  0.500000000000000     
  0.500000000000000     
  0.500000000000000     
  0.500000000000000     
  0.500000000000000     
  0.500000000000000     
  0.500000000000000     
  0.500000000000000     
  0.500000000000000     
  0.500000000000000     
  0.500000000000000     
  0.500000000000000     
  0.500000000000000     
  0.500000000000000     
  0.500000000000000     
  0.500000000000000     
  0.500000000000000     
  0.500000000000000     
  0.500000000000000     
  0.500000000000000     
  0.500000000000000     
  0.500000000000000     
  0.500000000000000     
  0.500000000000000     
  0.500000000000000     
  0.500000000000000     
  0.500000000000000     
  0.500000000000000     
  0.500000000000000     
  0.500000000000000     
  0.500000000000000     
  0.500000000000000     
  0.500000000000000     
  0.500000000000000     
  0.500000000000000     
  0.500000000000000     
  0.500000000000000     
  0.500000000000000     
  0.500000000000000     
  0.500000000000000     
  0.500000000000000     
  0.500000000000000     
  0.500000000000000     
  0.500000000000000     
  0.500000000000000     
  0.500000000000000     
  0.500000000000000     
  0.500000000000000     
  0.500000000000000     
  0.500000000000000     
  0.500000000000000     
  0.500000000000000     
  0.500000000000000     
  0.500000000000000     
  0.500000000000000     
  0.500000000000000     
  0.500000000000000     
  0.500000000000000     
  0.500000000000000     
  0.500000000000000     
  0.500000000000000     
  0.500000000000000     
  0.500000000000000     
  0.500000000000000     
  0.500000000000000     
  0.500000000000000     
  0.500000000000000     
  0.500000000000000     
  0.500000000000000     
  0.500000000000000     
  0.500000000000000     
  0.500000000000000     
  0.500000000000000     
  0.500000000000000     
  0.500000000000000     
  0.500000000000000     
  0.500000000000000     
  0.500000000000000     
  0.500000000000000     
  0.500000000000000     
  0.500000000000000     
  0.500000000000000     
  0.500000000000000     
  0.500000000000000     
  0.500000000000000     
  0.500000000000000     
  0.500000000000000     
  0.500000000000000     
  0.500000000000000     
  0.500000000000000     
  0.500000000000000     
  0.500000000000000     
  0.500000000000000     
  0.500000000000000     
  0.500000000000000     
  0.500000000000000     
  0.500000000000000     
  0.500000000000000     
  0.500000000000000     
  0.500000000000000     
  0.500000000000000     
  0.500000000000000     
  0.500000000000000     
  0.500000000000000     
  0.500000000000000     
  0.500000000000000     
  0.500000000000000     
  0.500000000000000     
  0.500000000000000     
  0.500000000000000     
  0.500000000000000     
  0.500000000000000     
  0.500000000000000     
  0.500000000000000     
  0.500000000000000     
  0.500000000000000     
  0.500000000000000     
  0.500000000000000     
  0.500000000000000     
  0.500000000000000     
  0.500000000000000     
  0.500000000000000     
  0.500000000000000     
  0.500000000000000     
  0.500000000000000     
  0.500000000000000     
  0.500000000000000     
  0.500000000000000     
  0.500000000000000     
  0.500000000000000     
  0.500000000000000     
  0.500000000000000     
  0.500000000000000     
  0.500000000000000     
  0.500000000000000     
  0.500000000000000     
  0.500000000000000     
  0.500000000000000     
  0.500000000000000     
  0.500000000000000     
  0.500000000000000     
  0.500000000000000     
  0.500000000000000     
  0.500000000000000     
  0.500000000000000     
  0.500000000000000     
  0.500000000000000     
  0.500000000000000     
  0.500000000000000     
  0.500000000000000     
  0.500000000000000     
  0.500000000000000     
  0.500000000000000     
  0.500000000000000     
  0.500000000000000     
  0.500000000000000     
  0.500000000000000     
  0.500000000000000     
  0.500000000000000     
  0.500000000000000     
  0.500000000000000     
  0.500000000000000     
  0.500000000000000     
  0.500000000000000     
  0.500000000000000     
  0.500000000000000     
  0.500000000000000     
  0.500000000000000     
  0.500000000000000     
  0.500000000000000     
  0.500000000000000     
  0.500000000000000     
  0.500000000000000     
  0.500000000000000     
  0.500000000000000     
  0.500000000000000     
  0.500000000000000     
  0.500000000000000     
  0.500000000000000     
  0.500000000000000     
  0.500000000000000     
  0.500000000000000     
  0.500000000000000     
  0.500000000000000     
  0.500000000000000     
  0.500000000000000     
  0.500000000000000     
  0.500000000000000     
  0.500000000000000     
  0.500000000000000     
  0.500000000000000     
  0.500000000000000     
  0.500000000000000     
  0.500000000000000     
  0.500000000000000     
  0.500000000000000     
  0.500000000000000     
  0.500000000000000     
  0.500000000000000     
  0.500000000000000     
  0.500000000000000     
  0.500000000000000     
  0.500000000000000     
  0.500000000000000     
  0.500000000000000     
  0.500000000000000     
  0.500000000000000     
  0.500000000000000     
  0.500000000000000     
  0.500000000000000     
  0.500000000000000     
  0.500000000000000     
  0.500000000000000     
  0.500000000000000     
  0.500000000000000     
  0.500000000000000     
  0.500000000000000     
  0.500000000000000     
  0.500000000000000     
  0.500000000000000     
  0.500000000000000     
  0.500000000000000     
  0.500000000000000     
  0.500000000000000     
  0.500000000000000     
  0.500000000000000     
  0.500000000000000     
  0.500000000000000     
  0.500000000000000     
  0.500000000000000     
  0.500000000000000     
  0.500000000000000     
  0.500000000000000     
  0.500000000000000     
  0.500000000000000     
  0.500000000000000     
  0.500000000000000     
  0.500000000000000     
  0.500000000000000     
  0.500000000000000     
  0.500000000000000     
  0.500000000000000     
  0.500000000000000     
  0.500000000000000     
  0.500000000000000     
  0.500000000000000     
  0.500000000000000     
  0.500000000000000     
  0.500000000000000     
  0.500000000000000     
  0.500000000000000     
  0.500000000000000     
  0.500000000000000     
  0.500000000000000     
  0.500000000000000     
  0.500000000000000     
  0.500000000000000     
  0.500000000000000     
  0.500000000000000     
  0.500000000000000     
  0.500000000000000     
  0.500000000000000     
  0.500000000000000     
  0.500000000000000     
  0.500000000000000     
  0.500000000000000     
  0.500000000000000     
  0.500000000000000     
  0.500000000000000     
  0.500000000000000     
  0.500000000000000     
  0.500000000000000     
  0.500000000000000     
  0.500000000000000     
  0.500000000000000     
  0.500000000000000     
  0.500000000000000     
  0.500000000000000     
  0.500000000000000     
  0.500000000000000     
  0.500000000000000     
  0.500000000000000     
  0.500000000000000     
  0.500000000000000     
  0.500000000000000     
  0.500000000000000     
  0.500000000000000     
  0.500000000000000     
  0.500000000000000     
  0.500000000000000     
  0.500000000000000     
  0.500000000000000     
  0.500000000000000     
  0.500000000000000     
  0.500000000000000     
  0.500000000000000     
  0.500000000000000     
  0.500000000000000     
  0.500000000000000     
  0.500000000000000     
  0.500000000000000     
  0.500000000000000     
  0.500000000000000     
  0.500000000000000     
  0.500000000000000     
  0.500000000000000     
  0.500000000000000     
  0.500000000000000     
  0.500000000000000     
  0.500000000000000     
  0.500000000000000     
  0.500000000000000     
  0.500000000000000     
  0.500000000000000     
  0.500000000000000     
  0.500000000000000     