# vtk DataFile Version 5.1
Data.vtk
ASCII
DATASET UNSTRUCTURED_GRID
 
POINTS 2000 float
    5.63  -12.56    0.02
   -7.47  -10.24    0.64
   -0.01  -14.50    3.29
   -1.13  -12.93   -2.24
   -9.48   -9.20    7.14
   -3.47  -10.82   -9.07
   -0.00  -11.34   -4.67
   -6.95  -12.39   -8.72
   -5.81   -9.40   -2.03
   -6.78  -11.57   -0.55
  -10.68   -9.78   -4.12
   -9.56   -8.02   -8.89
    1.42  -13.63   -3.06
   -1.35  -12.21    1.25
   -6.33  -13.04   -1.72
   -3.19  -10.12    0.51
   -7.31  -10.51    4.21
    3.12  -13.31    7.74
    3.55  -11.96    7.05
   -4.00  -13.94   -7.53
   -5.37  -13.44   -2.03
    4.41  -13.61    6.90
   -3.22   -8.93   -9.50
    2.37  -14.31   -9.50
    0.50  -13.04   -1.51
  -13.38   -5.16   -4.16
   -6.41  -12.95    6.40
   -0.52  -12.75    7.98
  -12.23   -7.08   -0.60
  -12.93   -5.27    8.78
    0.38  -14.49   -7.26
  -10.02   -7.65   -0.46
   -1.73  -10.09    7.26
   -4.46  -10.31   -1.39
   -5.85  -13.27   -6.49
    4.62  -13.75    8.88
   -7.10   -8.37    4.73
  -10.39  -10.11    5.96
  -10.58   -9.66    0.61
   -2.52  -12.26    1.66
    2.42  -11.22   -0.85
    0.22  -14.50   -2.54
  -12.92   -6.40   -5.85
   -0.38  -13.76    0.33
  -10.22   -8.39   -7.97
    1.78  -11.48    1.69
    2.47  -11.87    4.63
   -0.47  -13.67   -6.44
   -4.46  -10.68    1.71
    0.94  -13.96   -7.99
    4.37  -13.11   -7.79
   -6.90  -10.67    9.44
   -8.39   -9.73    7.37
   -7.28  -11.34    2.56
  -12.84   -5.23    3.91
   -5.47  -10.18    0.52
   -2.81   -9.76   -3.35
   -9.19  -11.21    2.33
   -7.57  -12.28    1.15
   -4.95   -9.98   -7.62
   -9.10  -11.29   -1.82
  -13.80   -3.38   -9.19
   -0.47  -12.74    6.94
    3.17  -14.15    2.37
    3.11  -12.18    0.40
   -5.77  -12.21    0.53
    2.09  -13.38   -7.25
   -7.78  -10.27    2.64
    6.37  -13.02   -5.82
   -4.33  -11.32   -1.62
  -10.38   -8.71    4.87
   -2.40  -14.29   -9.50
    2.75  -12.77   -5.19
  -12.09   -5.51    5.46
   -6.57   -8.99    3.66
   -6.25  -13.07   -8.48
   -3.92  -10.10    6.13
    4.63  -13.38   -5.95
   -6.19  -11.33    2.88
   -6.53   -9.07   -0.06
   -0.91  -13.43    9.50
   -4.94   -9.38    4.75
   -0.50  -13.55   -3.29
   -1.59  -10.28   -5.08
   -0.51  -13.08   -8.65
   -3.17  -11.45   -5.57
   -2.29  -14.32    2.19
   -4.81   -9.72   -3.76
  -11.70   -8.53    0.03
   -4.68  -10.96    4.97
   -2.67  -11.67   -0.20
   -0.91  -12.44   -9.50
  -11.41   -8.53   -3.01
  -13.46   -3.42    8.43
    2.55  -12.61    3.13
   -9.73   -7.69   -1.97
   -7.56  -12.38    2.95
   -7.28  -11.48    5.53
    3.76  -13.01   -3.56
  -11.53   -8.34   -2.04
    3.95  -13.95    1.71
   -2.27  -10.29   -2.27
  -13.07   -6.23    0.95
   -9.53   -7.76    5.99
   -9.64  -10.58    1.68
   -2.66  -10.05   -4.45
    3.85  -12.60    4.11
  -10.52   -8.45   -3.76
   -3.84  -13.98    8.42
   -4.64  -13.74    3.49
  -12.52   -6.88    7.67
   -6.02  -12.19   -2.14
    2.71  -11.55   -2.41
    1.29  -12.66   -6.73
    4.47  -12.73    3.14
   -2.73  -10.43   -7.42
   -7.33  -12.51    0.21
  -11.76   -6.21   -6.57
    3.53  -14.06    6.12
  -11.55   -6.72    9.12
    4.43  -13.01    8.22
   -6.29   -8.76    8.69
   -4.86  -12.69    8.54
   -7.28   -9.51    4.13
   -9.45   -8.90    0.31
   -1.29  -10.85   -2.50
    5.03  -13.36   -3.78
   -2.81  -14.20    3.04
    2.82  -13.42   -9.50
    0.02  -13.09   -9.50
   -4.10  -11.88   -3.79
  -12.14   -6.45    2.75
   -0.35  -10.48   -0.39
   -7.92   -9.54    0.03
   -6.66  -10.11   -6.28
    0.35  -13.46    8.35
    0.57  -14.49   -9.02
    5.31  -13.47   -6.96
   -3.41  -10.24    6.98
    5.80  -13.29    0.81
   -3.42  -10.58   -1.82
   -2.25  -14.32    5.49
   -7.20  -10.97   -6.41
  -13.81   -3.82    9.32
  -12.07   -6.39    4.92
   -5.09  -12.51    9.50
   -6.30  -11.69    5.66
    3.38  -12.53   -9.50
    1.10  -13.58   -7.07
   -4.69  -12.58   -9.50
   -3.95  -11.27    4.35
  -10.76   -7.85   -1.63
  -10.40   -7.43    4.71
   -7.84   -8.77   -2.93
   -0.20  -14.07   -9.50
   -6.29  -12.81    1.77
   -6.55  -12.20    2.54
   -2.90   -9.81    3.51
   -7.57  -10.24    6.98
    3.54  -11.65    4.29
  -11.95   -7.03   -6.02
   -2.06  -10.74    3.30
    2.71  -14.03   -8.60
    4.19  -11.59    1.88
   -3.66  -10.40   -6.29
  -10.13   -8.77    2.40
   -3.41  -14.04   -4.03
   -1.28  -13.88   -8.00
    0.22  -10.76   -1.60
   -9.13   -8.51   -7.22
    4.19  -12.29    1.13
   -8.83   -8.39   -5.31
   -1.31  -11.93    8.13
  -10.34   -6.69   -4.59
   -4.71  -12.68    5.82
   -7.77   -8.63    0.43
   -4.48  -10.73    9.35
   -9.94   -6.94    8.31
  -11.16   -7.16   -4.22
   -2.59  -13.48   -0.57
  -11.14   -9.16   -9.47
   -1.74  -10.41    1.04
    5.16  -12.30    0.86
   -6.23   -9.22   -6.09
   -4.75  -10.98    8.31
    1.86  -12.83   -3.61
  -11.13   -9.16   -6.18
    1.83  -14.38   -8.18
  -11.01   -9.35    7.03
   -1.33  -14.44   -3.27
   -6.92  -11.73   -2.09
    1.46  -13.88    5.61
   -1.97  -13.16    8.75
   -8.91   -8.49   -9.50
   -1.92  -11.23   -3.34
    1.07  -11.88    6.29
   -9.32   -7.53   -5.46
    5.20  -12.83   -8.30
   -1.16  -14.45   -1.30
   -4.71  -10.99   -0.70
   -4.91  -10.26    4.27
    0.42  -11.81    9.02
    2.24  -12.64   -6.04
   -3.52  -13.52   -1.76
    2.68  -13.60    3.04
   -7.41  -11.36   -9.50
   -0.57  -10.86   -4.00
   -9.91   -7.05    6.60
   -5.14   -9.28   -5.10
   -7.43  -10.30   -8.29
   -8.29   -9.38    5.71
    0.99  -13.48   -8.87
   -6.46   -9.67    1.99
    2.79  -13.45   -6.29
   -6.03   -8.79   -5.16
   -3.55  -11.09    0.63
   -6.63  -10.06    0.14
    2.43  -14.30    9.50
   -6.39  -11.40   -7.77
   -8.31  -11.88   -5.18
   -6.05  -10.04    4.60
   -2.58  -11.25    4.81
  -13.15   -5.93   -7.72
   -6.38  -11.67   -2.93
    0.82  -12.74    9.42
   -0.77  -12.38    9.50
  -12.72   -6.65   -9.43
    2.76  -12.94   -3.15
   -7.95   -9.23    9.33
   -3.15  -11.55   -8.47
   -3.31  -14.12   -5.98
    0.82  -12.39    4.41
   -3.91  -12.19   -7.14
   -6.70  -10.91    7.06
  -10.67   -9.69   -8.73
   -7.08  -12.65   -3.27
  -12.84   -5.88   -0.02
   -3.53   -9.87    1.42
    1.55  -12.69    3.08
   -8.30  -10.48   -7.72
  -11.00   -9.45    5.18
    6.01  -13.20    4.94
  -10.46   -8.29   -9.50
   -4.14  -11.43   -8.51
   -0.97  -10.48    3.80
  -11.25   -8.85    0.88
   -6.75   -8.92   -7.82
   -4.05   -9.89   -0.51
   -2.00  -10.98    9.16
   -4.13  -11.78    9.50
   -4.27  -12.85   -3.57
   -7.07   -8.54   -9.43
   -6.86   -9.66   -7.15
   -1.17  -14.45    7.80
    5.88  -12.29    5.58
    0.49  -13.04    3.20
   -1.32  -10.95   -8.77
    4.88  -13.66    4.69
  -12.31   -7.67   -7.30
   -2.77  -11.93   -1.16
   -3.54   -9.83   -9.18
   -2.95  -10.99   -4.63
  -12.18   -7.77    7.33
   -6.29   -8.60    5.28
  -11.30   -9.08   -8.22
    3.06  -14.17   -5.28
    5.42  -13.45    2.06
   -9.45   -8.43    3.23
   -4.88  -12.24   -7.41
   -7.68   -9.53   -7.71
   -7.84  -11.24   -0.53
   -3.55  -13.03    1.21
   -2.56  -13.46   -8.70
    5.46  -12.85   -6.19
    0.54  -11.56   -5.68
   -7.09  -11.66    9.48
    0.86  -12.03    3.41
    0.55  -11.16    5.83
    0.06  -10.56   -5.89
   -6.00  -13.16   -0.79
   -4.02  -12.91    6.56
    2.81  -14.22    8.14
   -0.73  -11.97   -4.05
   -2.12  -10.06    8.50
   -9.37   -9.75   -2.12
   -5.81   -9.11    4.32
   -2.29  -13.60   -1.66
   -3.03  -11.17    7.03
   -5.22   -9.22   -6.10
    5.41  -12.61    2.62
   -3.33  -14.11    2.01
   -3.92   -9.71    3.32
  -10.33   -8.71   -2.32
   -1.15  -10.60   -5.91
   -5.09   -9.66    7.52
   -3.63  -11.99    0.14
    4.36  -13.83   -8.48
   -6.40  -10.31    5.58
    1.40  -13.80    7.10
   -2.09  -14.35   -7.42
    3.38  -13.74   -1.73
    4.82  -12.73    5.09
   -5.74  -12.62    2.96
  -13.53   -5.20   -0.27
    3.19  -11.34   -0.22
    3.59  -13.04    6.76
   -4.26   -9.96    5.19
   -1.81  -14.39   -8.68
   -7.72   -9.16   -1.64
  -11.14   -6.41    7.92
   -2.80  -10.91   -6.34
   -6.69  -10.96    4.87
   -7.92   -8.85   -0.70
  -10.16   -9.37   -0.96
    1.06  -11.69   -6.59
    2.44  -11.82   -5.23
    2.30  -12.27   -9.48
   -1.35  -10.41   -0.47
   -8.07  -12.04    5.75
  -10.84   -7.72   -7.55
   -0.98  -13.44   -9.49
   -9.37   -8.06   -4.31
   -2.31  -14.31   -3.36
   -0.95  -14.05   -4.16
  -10.80   -6.88   -3.25
   -6.17   -9.67    1.03
  -12.75   -6.88    4.35
    3.76  -11.75    5.49
   -6.31  -11.93   -6.89
    1.75  -13.83    1.66
   -6.10   -9.52   -0.85
    1.37  -13.99   -1.63
   -1.07  -14.46    3.24
   -5.50  -12.75   -3.98
   -6.56  -12.08    8.69
   -9.93  -10.44   -4.01
   -7.50   -8.91    6.86
   -7.17  -12.55    5.88
   -6.90  -12.73   -0.67
   -0.55  -11.40   -1.59
   -6.70   -9.02   -2.71
   -2.74  -12.49   -8.52
    4.35  -13.57    5.82
   -8.37  -10.77    6.33
   -3.14  -11.69   -9.50
   -6.91  -10.60   -7.48
   -3.62  -10.00    2.41
   -8.62   -8.95   -2.00
   -2.50  -12.47   -4.77
  -11.71   -8.55    7.75
   -9.24  -10.73   -4.67
   -4.81  -10.00   -8.62
   -9.07  -11.30   -5.48
  -12.28   -7.36    5.09
   -1.63  -11.87   -5.33
   -7.95   -8.81    4.41
    2.76  -11.96   -4.29
   -1.31  -14.44    9.50
   -4.91   -9.57    3.48
  -11.21   -6.71   -7.23
   -2.27  -14.16    9.42
   -3.43  -13.21    8.91
   -3.63   -9.88   -4.33
   -2.92  -10.47    7.82
    3.17  -14.15    4.37
  -11.74   -8.51    1.70
  -12.08   -6.99    6.70
   -3.39  -14.10   -9.50
   -1.75  -10.21   -3.12
   -3.36   -9.60    5.46
    1.26  -13.67   -5.62
   -1.66  -10.18   -7.13
    3.74  -11.27   -4.89
   -9.00   -8.73    9.50
   -9.28   -8.01   -3.31
   -7.36  -12.49    4.10
    4.92  -12.58    6.75
   -5.55   -9.28    0.11
   -8.58   -9.97   -4.68
   -9.85   -7.12   -8.57
   -1.97  -13.33   -9.50
   -8.46   -7.45   -2.22
   -7.92  -11.12   -5.73
   -2.68  -11.31    5.88
  -13.83   -4.27   -8.72
   -6.02   -9.10   -8.54
   -8.88   -7.55   -1.30
    1.92  -12.91    2.01
   -9.52  -10.93   -7.51
    0.23  -11.15   -6.68
   -3.33  -12.39    9.47
    3.78  -12.70    5.15
   -9.38   -7.84   -7.91
    2.13  -11.91    6.49
  -10.73   -6.51    5.98
    2.09  -12.74    4.23
[...]
POINT_DATA 2000
SCALARS radius float
LOOKUP_TABLE default
  0.500000000000000     
  0.500000000000000     
  0.500000000000000     
  0.500000000000000     
  0.500000000000000     
  0.500000000000000     
  0.500000000000000     
  0.500000000000000     
  0.500000000000000     
  0.500000000000000     
  0.500000000000000     
  0.500000000000000     
  0.500000000000000     
  0.500000000000000     
  0.500000000000000     
  0.500000000000000     
  0.500000000000000     
  0.500000000000000     
  0.500000000000000     
  0.500000000000000     
  0.500000000000000     
  0.500000000000000     
  0.500000000000000     
  0.500000000000000     
  0.500000000000000     
  0.500000000000000     
  0.500000000000000     
  0.500000000000000     
  0.500000000000000     
  0.500000000000000     
  0.500000000000000     
  0.500000000000000     
  0.500000000000000     
  0.500000000000000     
  0.500000000000000     
  0.500000000000000     
  0.500000000000000     
  0.500000000000000     
  0.500000000000000     
  0.500000000000000     
  0.500000000000000     
  0.500000000000000     
  0.500000000000000     
  0.500000000000000     
  0.500000000000000     
  0.500000000000000     
  0.500000000000000     
  0.500000000000000     
  0.500000000000000     
  0.500000000000000     
  0.500000000000000     
  0.500000000000000     
  0.500000000000000     
  0.500000000000000     
  0.500000000000000     
  0.500000000000000     
  0.500000000000000     
  0.500000000000000     
  0.500000000000000     
  0.500000000000000     
  0.500000000000000     
  0.500000000000000     
  0.500000000000000     
  0.500000000000000     
  0.500000000000000     
  0.500000000000000     
  0.500000000000000     
  0.500000000000000     
  0.500000000000000     
  0.500000000000000     
  0.500000000000000     
  0.500000000000000     
  0.500000000000000     
  0.500000000000000     
  0.500000000000000     
  0.500000000000000     
  0.500000000000000     
  0.500000000000000     
  0.500000000000000     
  0.500000000000000     
  0.500000000000000     
  0.500000000000000     
  0.500000000000000     
  0.500000000000000     
  0.500000000000000     
  0.500000000000000     
  0.500000000000000     
  0.500000000000000     
  0.500000000000000     
  0.500000000000000     
  0.500000000000000     
  0.500000000000000     
  0.500000000000000     
  0.500000000000000     
  0.500000000000000     
  0.500000000000000     
  0.500000000000000     
  0.500000000000000     
  0.500000000000000     
  0.500000000000000     
  0.500000000000000     
  0.500000000000000     
  0.500000000000000     
  0.500000000000000     
  0.500000000000000     
  0.500000000000000     
  0.500000000000000     
  0.500000000000000     
  0.500000000000000     
  0.500000000000000     
  0.500000000000000     
  0.500000000000000     
  0.500000000000000     
  0.500000000000000     
  0.500000000000000     
  0.500000000000000     
  0.500000000000000     
  0.500000000000000     
  0.500000000000000     
  0.500000000000000     
  0.500000000000000     
  0.500000000000000     
  0.500000000000000     
  0.500000000000000     
  0.500000000000000     
  0.500000000000000     
  0.500000000000000     
  0.500000000000000     
  0.500000000000000     
  0.500000000000000     
  0.500000000000000     
  0.500000000000000     
  0.500000000000000     
  0.500000000000000     
  0.500000000000000     
  0.500000000000000     
  0.500000000000000     
  0.500000000000000     
  0.500000000000000     
  0.500000000000000     
  0.500000000000000     
  0.500000000000000     
  0.500000000000000     
  0.500000000000000     
  0.500000000000000     
  0.500000000000000     
  0.500000000000000     
  0.500000000000000     
  0.500000000000000     
  0.500000000000000     
  0.500000000000000     
  0.500000000000000     
  0.500000000000000     
  0.500000000000000     
  0.500000000000000     
  0.500000000000000     
  0.500000000000000     
  0.500000000000000     
  0.500000000000000     
  0.500000000000000     
  0.500000000000000     
  0.500000000000000     
  0.500000000000000     
  0.500000000000000     
  0.500000000000000     
  0.500000000000000     
  0.500000000000000     
  0.500000000000000     
  0.500000000000000     
  0.500000000000000     
  0.500000000000000     
  0.500000000000000     
  0.500000000000000     
  0.500000000000000     
  0.500000000000000     
  0.500000000000000     
  0.500000000000000     
  0.500000000000000     
  0.500000000000000     
  0.500000000000000     
  0.500000000000000     
  0.500000000000000     
  0.500000000000000     
  0.500000000000000     
  0.500000000000000     
  0.500000000000000     
  0.500000000000000     
  0.500000000000000     
  0.500000000000000     
  0.500000000000000     
  0.500000000000000     
  0.500000000000000     
  0.500000000000000     
  0.500000000000000     
  0.500000000000000     
  0.500000000000000     
  0.500000000000000     
  0.500000000000000     
  0.500000000000000     
  0.500000000000000     
  0.500000000000000     
  0.500000000000000     
  0.500000000000000     
  0.500000000000000     
  0.500000000000000     
  0.500000000000000     
  0.500000000000000     
  0.500000000000000     
  0.500000000000000     
  0.500000000000000     
  0.500000000000000     
  0.500000000000000     
  0.500000000000000     
  0.500000000000000     
  0.500000000000000     
  0.500000000000000     
  0.500000000000000     
  0.500000000000000     
  0.500000000000000     
  0.500000000000000     
  0.500000000000000     
  0.500000000000000     
  0.500000000000000     
  0.500000000000000     
  0.500000000000000     
  0.500000000000000     
  0.500000000000000     
  0.500000000000000     
  0.500000000000000     
  0.500000000000000     
  0.500000000000000     
  0.500000000000000     
  0.500000000000000     
  0.500000000000000     
  0.500000000000000     
  0.500000000000000     
  0.500000000000000     
  0.500000000000000     
  0.500000000000000     
  0.500000000000000     
  0.500000000000000     
  0.500000000000000     
  0.500000000000000     
  0.500000000000000     
  0.500000000000000     
  0.500000000000000     
  0.500000000000000     
  0.500000000000000     
  0.500000000000000     
  0.500000000000000     
  0.500000000000000     
  0.500000000000000     
  0.500000000000000     
  0.500000000000000     
  0.500000000000000     
  0.500000000000000     
  0.500000000000000     
  0.500000000000000     
  0.500000000000000     
  0.500000000000000     
  0.500000000000000     
  0.500000000000000     
  0.500000000000000     
  0.500000000000000     
  0.500000000000000     
  0.500000000000000     
  0.500000000000000     
  0.500000000000000     
  0.500000000000000     
  0.500000000000000     
  0.500000000000000     
  0.500000000000000     
  0.500000000000000     
  0.500000000000000     
  0.500000000000000     
  0.500000000000000     
  0.500000000000000     
  0.500000000000000     
  0.500000000000000     
  0.500000000000000     
  0.500000000000000     
  0.500000000000000     
  0.500000000000000     
  0.500000000000000     
  0.500000000000000     
  0.500000000000000     
  0.500000000000000     
  0.500000000000000     
  0.500000000000000     
  0.500000000000000     
  0.500000000000000     
  0.500000000000000     
  0.500000000000000     
  0.500000000000000     
  0.500000000000000     
  0.500000000000000     
  0.500000000000000     
  0.500000000000000     
  0.500000000000000     
  0.500000000000000     
  0.500000000000000     
  0.500000000000000     
  0.500000000000000     
  0.500000000000000     
  0.500000000000000     
  0.500000000000000     
  0.500000000000000     
  0.500000000000000     
  0.500000000000000     
  0.500000000000000     
  0.500000000000000     
  0.500000000000000     
  0.500000000000000     
  0.500000000000000     
  0.500000000000000     
  0.500000000000000     
  0.500000000000000     
  0.500000000000000     
  0.500000000000000     
  0.500000000000000     
  0.500000000000000     
  0.500000000000000     
  0.500000000000000     
  0.500000000000000     
  0.500000000000000     
  0.500000000000000     
  0.500000000000000     
  0.500000000000000     
  0.500000000000000     
  0.500000000000000     
  0.500000000000000     
  0.500000000000000     
  0.500000000000000     
  0.500000000000000     
  0.500000000000000     
  0.500000000000000     
  0.500000000000000     
  0.500000000000000     
  0.500000000000000     
  0.500000000000000     
  0.500000000000000     
  0.500000000000000     
  0.500000000000000     
  0.500000000000000     
  0.500000000000000     
  0.500000000000000     
  0.500000000000000     
  0.500000000000000     
  0.500000000000000     
  0.500000000000000     
  0.500000000000000     
  0.500000000000000     
  0.500000000000000     
  0.500000000000000     
  0.500000000000000     
  0.500000000000000     
  0.500000000000000     
  0.500000000000000     
  0.500000000000000     
  0.500000000000000     
  0.500000000000000     
  0.500000000000000     
  0.500000000000000     
  0.500000000000000     
  0.500000000000000     
  0.500000000000000     
  0.500000000000000     
  0.500000000000000     
  0.500000000000000     
  0.500000000000000     
  0.500000000000000     
  0.500000000000000     
  0.500000000000000     
  0.500000000000000     
  0.500000000000000     
  0.500000000000000     
  0.500000000000000     
  0.500000000000000     
  0.500000000000000     
  0.500000000000000     
  0.500000000000000     
  0.500000000000000     
  0.500000000000000     
  0.500000000000000     
  0.500000000000000     
  0.500000000000000     
  0.500000000000000     
  0.500000000000000     
  0.500000000000000     
  0.500000000000000     
  0.500000000000000     
  0.500000000000000     
  0.500000000000000     
  0.500000000000000     
  0.500000000000000     
  0.500000000000000     
  0.500000000000000     
  0.500000000000000     
  0.500000000000000     
  0.500000000000000     
  0.500000000000000     
  0.500000000000000     
  0.500000000000000     
  0.500000000000000     
  0.500000000000000     
  0.500000000000000     
  0.500000000000000     
  0.500000000000000     
  0.500000000000000     
  0.500000000000000     
  0.500000000000000     
  0.500000000000000     
  0.500000000000000     
  0.500000000000000     
  0.500000000000000     
  0.500000000000000     
  0.500000000000000     
  0.500000000000000     
  0.500000000000000     
  0.500000000000000     
  0.500000000000000     
  0.500000000000000     
  0.500000000000000     
  0.500000000000000     
  0.500000000000000     
  0.500000000000000     
  0.500000000000000     
  0.500000000000000     
  0.500000000000000     
  0.500000000000000     
  0.500000000000000     
  0.500000000000000     
  0.500000000000000     
  0.500000000000000     
  0.500000000000000     
  0.500000000000000     
  0.500000000000000     
  0.500000000000000     
  0.500000000000000     
  0.500000000000000     
  0.500000000000000     
  0.500000000000000     
  0.500000000000000     
  0.500000000000000     
  0.500000000000000     
  0.500000000000000     
  0.500000000000000     
  0.500000000000000     
  0.500000000000000     
  0.500000000000000     
  0.500000000000000     
  0.500000000000000     
  0.500000000000000     
  0.500000000000000     
  0.500000000000000     
  0.500000000000000     
  0.500000000000000     
  0.500000000000000     
  0.500000000000000     
  0.500000000000000     
  0.500000000000000     
  0.500000000000000     
  0.500000000000000     
  0.500000000000000     
  0.500000000000000     
  0.500000000000000     
  0.500000000000000     
  0.500000000000000     
  0.500000000000000     
  0.500000000000000     
  0.500000000000000     
  0.500000000000000     
  0.500000000000000     
  0.500000000000000     
  0.500000000000000     
  0.500000000000000     
  0.500000000000000     
  0.500000000000000     
  0.500000000000000     
  0.500000000000000     
  0.500000000000000     
  0.500000000000000     
  0.500000000000000     
  0.500000000000000     
  0.500000000000000     
  0.500000000000000     
  0.500000000000000     
  0.500000000000000     
  0.500000000000000     
  0.500000000000000     
  0.500000000000000     
  0.500000000000000     
  0.500000000000000     
  0.500000000000000     
  0.500000000000000     
  0.500000000000000     
  0.500000000000000     
  0.500000000000000     
  0.500000000000000     
  0.500000000000000     
  0.500000000000000     
  0.500000000000000     
  0.500000000000000     
  0.500000000000000     
  0.500000000000000     
  0.500000000000000     
  0.500000000000000     
  0.500000000000000     
  0.500000000000000     
  0.500000000000000     
  0.500000000000000     
  0.500000000000000     
  0.500000000000000     
  0.500000000000000     
  0.500000000000000     
  0.500000000000000     
  0.500000000000000     
  0.500000000000000     
  0.500000000000000     
  0.500000000000000     
  0.500000000000000     
  0.500000000000000     
  0.500000000000000     
  0.500000000000000     
  0.500000000000000     
  0.500000000000000     
  0.500000000000000     
  0.500000000000000     
  0.500000000000000     
  0.500000000000000     
  0.500000000000000     
  0.500000000000000     
  0.500000000000000     
  0.500000000000000     
  0.500000000000000     
  0.500000000000000     
  0.500000000000000     
  0.500000000000000     
  0.500000000000000     
  0.500000000000000     
  0.500000000000000     
  0.500000000000000     
  0.500000000000000     
  0.500000000000000     
  0.500000000000000     
  0.500000000000000     
  0.500000000000000     
  0.500000000000000     
  0.500000000000000     
  0.500000000000000     
  0.500000000000000     
  0.500000000000000     
  0.500000000000000     
  0.500000000000000     
  0.500000000000000     
  0.500000000000000     
  0.500000000000000     
  0.500000000000000     
  0.500000000000000     
  0.500000000000000     
  0.500000000000000     
  0.500000000000000     
  0.500000000000000     
  0.500000000000000     
  0.500000000000000     
  0.500000000000000     
  0.500000000000000     
  0.500000000000000     
  0.500000000000000     
  0.500000000000000     
  0.500000000000000     
  0.500000000000000     
  0.500000000000000     
  0.500000000000000     
  0.500000000000000     
  0.500000000000000     
  0.500000000000000     
  0.500000000000000     
  0.500000000000000     
  0.500000000000000     
  0.500000000000000     
  0.500000000000000     
  0.500000000000000     
  0.500000000000000     
  0.500000000000000     
  0.500000000000000     
  0.500000000000000     
  0.500000000000000     
  0.500000000000000     
  0.500000000000000     
  0.500000000000000     
  0.500000000000000     
  0.500000000000000     
  0.500000000000000     
  0.500000000000000     
  0.500000000000000     
  0.500000000000000     
  0.500000000000000     
  0.500000000000000     
  0.500000000000000     
  0.500000000000000     
  0.500000000000000     
  0.500000000000000     
  0.500000000000000     
  0.500000000000000     
  0.500000000000000     
  0.500000000000000     
  0.500000000000000     
  0.500000000000000     
  0.500000000000000     
  0.500000000000000     
  0.500000000000000     
  0.500000000000000     
  0.500000000000000     
  0.500000000000000     
  0.500000000000000     
  0.500000000000000     
  0.500000000000000     
  0.500000000000000     
  0.500000000000000     
  0.500000000000000     
  0.500000000000000     
  0.500000000000000     
  0.500000000000000     
  0.500000000000000     
  0.500000000000000     
  0.500000000000000     
  0.500000000000000     
  0.500000000000000     
  0.500000000000000     
  0.500000000000000     
  0.500000000000000     
  0.500000000000000     
  0.500000000000000     
  0.500000000000000     
  0.500000000000000     
  0.500000000000000     
  0.500000000000000     
  0.500000000000000     
  0.500000000000000     
  0.500000000000000     
  0.500000000000000     
  0.500000000000000     
  0.500000000000000     
  0.500000000000000     
  0.500000000000000     
  0.500000000000000     
  0.500000000000000     
  0.500000000000000     
  0.500000000000000     
  0.500000000000000     
  0.500000000000000     
  0.500000000000000     
  0.500000000000000     
  0.500000000000000     
  0.500000000000000     
  0.500000000000000     
  0.500000000000000     
  0.500000000000000     
  0.500000000000000     
  0.500000000000000     
  0.500000000000000     
  0.500000000000000     
  0.500000000000000     
  0.500000000000000     
  0.500000000000000     
  0.500000000000000     
  0.500000000000000     
  0.500000000000000     
  0.500000000000000     
  0.500000000000000     
  0.500000000000000     
  0.500000000000000     
  0.500000000000000     
  0.500000000000000     
  0.500000000000000     
  0.500000000000000     
  0.500000000000000     
  0.500000000000000     
  0.500000000000000     
  0.500000000000000     
  0.500000000000000     
  0.500000000000000     
  0.500000000000000     
  0.500000000000000     
  0.500000000000000     
  0.500000000000000     
  0.500000000000000     
  0.500000000000000     
  0.500000000000000     
  0.500000000000000     
  0.500000000000000     
  0.500000000000000     
  0.500000000000000     
  0.500000000000000     
  0.500000000000000     
  0.500000000000000     
  0.500000000000000     
  0.500000000000000     
  0.500000000000000     
  0.500000000000000     
  0.500000000000000     
  0.500000000000000     
  0.500000000000000     
  0.500000000000000     
  0.500000000000000     
  0.500000000000000     
  0.500000000000000     
  0.500000000000000     
  0.500000000000000     
  0.500000000000000     
  0.500000000000000     
  0.500000000000000     
  0.500000000000000     
  0.500000000000000     
  0.500000000000000     
  0.500000000000000     
  0.500000000000000     
  0.500000000000000     
  0.500000000000000     
  0.500000000000000     
  0.500000000000000     
  0.500000000000000     
  0.500000000000000     
  0.500000000000000     
  0.500000000000000     
  0.500000000000000     
  0.500000000000000     
  0.500000000000000     
  0.500000000000000     
  0.500000000000000     
  0.500000000000000     
  0.500000000000000     
  0.500000000000000     
  0.500000000000000     
  0.500000000000000     
  0.500000000000000     
  0.500000000000000     
  0.500000000000000     
  0.500000000000000     
  0.500000000000000     
  0.500000000000000     
  0.500000000000000     
  0.500000000000000     
  0.500000000000000     
  0.500000000000000     
  0.500000000000000     
  0.500000000000000     
  0.500000000000000     
  0.500000000000000     
  0.500000000000000     
  0.500000000000000     
  0.500000000000000     
  0.500000000000000     
  0.500000000000000     
  0.500000000000000     
  0.500000000000000     
  0.500000000000000     
  0.500000000000000     
  0.500000000000000     
  0.500000000000000     
  0.500000000000000     
  0.500000000000000     
  0.500000000000000     
  0.500000000000000     
  0.500000000000000     
  0.500000000000000     
  0.500000000000000     
  0.500000000000000     
  0.500000000000000     
  0.500000000000000     
  0.500000000000000     
  0.500000000000000     
  0.500000000000000     
  0.500000000000000     
  0.500000000000000     
  0.500000000000000     
  0.500000000000000     
  0.500000000000000     
  0.500000000000000     
  0.500000000000000     
  0.500000000000000     
  0.500000000000000     
  0.500000000000000     
  0.500000000000000     
  0.500000000000000     
  0.500000000000000     
  0.500000000000000     
  0.500000000000000     
  0.500000000000000     
  0.500000000000000     
  0.500000000000000     
  0.500000000000000     
  0.500000000000000     
  0.500000000000000     
  0.500000000000000     
  0.500000000000000     