# vtk DataFile Version 5.1
Data.vtk
ASCII
DATASET UNSTRUCTURED_GRID
 
POINTS 2000 float
   -4.05  -13.92   -1.39
    5.62  -13.12    0.78
  -10.02   -8.42    2.68
   -9.35  -11.00   -1.88
    3.61  -12.54    7.91
   -2.94  -13.19   -9.50
   -2.66  -14.25   -8.75
   -5.41   -8.03   -8.53
    3.23  -13.23   -3.28
   -4.86  -11.73   -1.20
   -0.31  -10.94   -2.59
    1.32  -11.75   -6.36
   -1.97  -14.14   -2.84
    0.39  -12.79    3.64
   -5.53   -9.28   -1.07
    0.40  -14.49    4.44
    3.12  -12.62    4.11
   -7.60  -11.37    7.98
  -12.07   -8.03    8.23
   -5.45   -8.70   -5.38
   -7.66   -9.12   -0.98
  -12.93   -6.43    8.56
   -5.96  -10.29   -9.27
  -10.44   -6.77   -6.63
   -3.26  -13.23   -1.82
    0.09  -11.11   -0.86
   -3.22   -9.83    5.55
   -3.71  -10.91    7.74
    2.94  -10.89   -1.49
    2.76  -12.08    8.61
  -10.64   -8.12   -5.74
    4.75  -13.70    0.74
  -10.13   -9.06    9.27
    2.24  -13.52   -1.72
  -11.74   -6.64   -3.75
  -13.69   -4.70    8.60
    5.26  -12.73    7.70
   -4.35  -10.79    3.33
    2.77  -11.38    1.88
    0.44  -12.87    2.13
   -3.96  -13.94   -3.19
  -11.12   -7.80   -2.36
    0.34  -13.09   -5.84
   -4.98  -12.81    0.11
    2.64  -12.54   -7.73
   -0.43  -14.49    5.01
   -7.67  -12.28    8.50
   -7.09  -10.29   -5.66
    2.90  -13.38   -0.10
  -10.01   -7.64   -6.36
  -11.70   -8.56   -9.50
   -2.66  -10.68    7.66
    5.18  -13.54    9.31
   -0.67  -12.17    1.47
    5.23  -13.53    4.80
    2.73  -12.86   -0.94
    3.15  -14.10   -6.77
   -2.65  -11.09    1.31
   -5.22   -9.71    0.29
   -4.99  -11.98   -9.03
    0.07  -10.13   -0.64
   -2.75   -9.60   -8.51
   -5.80  -11.16    8.29
  -11.45   -8.86    1.58
   -2.40  -14.30    0.11
   -3.70  -11.04    1.16
  -11.40   -8.96   -8.60
    3.72  -13.08    3.14
   -9.17  -11.24   -8.54
   -0.55  -13.63   -3.09
    4.09  -12.10    3.07
   -4.14   -9.11   -6.50
   -6.46  -12.05   -7.79
    6.35  -13.04    3.31
   -2.37  -14.30    9.50
   -0.28  -10.55   -6.56
   -0.91  -14.07    8.87
   -9.85   -9.62   -7.23
   -1.62  -11.78    1.34
    2.41  -14.29    0.69
  -10.51   -7.13    9.43
   -3.34  -14.11    9.35
   -7.45  -11.56   -4.42
   -3.34  -14.11   -9.49
   -8.33   -9.01   -6.60
   -2.63  -12.37   -7.70
   -6.91   -9.72    1.58
    3.99  -13.94   -7.62
    4.51  -11.54    0.19
   -1.11  -13.10    5.62
    4.41  -12.82    0.01
  -11.15   -7.22   -8.21
    2.35  -14.31   -8.52
    4.31  -12.93    6.32
   -5.27  -13.51    9.48
    4.08  -13.91   -2.96
   -6.33  -10.16    2.80
   -2.18  -10.36    4.66
   -7.46  -12.42   -5.49
    2.09  -11.24   -1.07
  -10.91   -9.44    2.19
    5.91  -13.24   -6.75
    5.12  -12.28    0.48
    4.61  -13.24    8.55
   -0.90  -11.26    0.86
    0.45  -14.49   -9.50
   -7.92  -12.15    4.91
    3.99  -12.78   -6.73
   -8.40   -8.93    5.96
   -7.22  -10.57    3.37
    4.40  -12.15    5.70
   -9.14   -9.21   -0.88
   -4.43  -13.79   -2.32
   -4.81  -12.69   -7.69
   -6.05  -13.14    5.43
   -0.19  -13.79   -8.61
   -4.17   -9.82    0.30
    2.31  -12.76   -5.66
  -12.87   -6.65    7.59
    1.50  -14.29    7.48
   -9.10  -10.20    8.16
   -0.51  -12.43    9.50
   -0.82  -10.80    7.67
    4.72  -12.99    3.14
    3.38  -14.10   -1.74
    4.02  -13.93   -3.96
   -8.74  -11.54   -6.13
   -7.32  -10.08    2.49
   -9.37   -8.49   -8.75
  -10.65   -7.47   -9.50
   -5.20  -11.82   -3.93
    3.87  -12.52    2.11
    5.67  -13.34   -2.90
    5.04  -13.10   -0.78
   -0.81  -11.68   -7.69
   -7.37  -10.13    8.44
   -7.32   -7.56   -7.93
   -7.26  -10.85   -7.23
   -8.11  -10.94    9.50
   -7.68  -12.30    0.74
    1.77  -14.22   -0.98
  -12.27   -6.15    4.42
   -1.90  -11.40   -6.02
    4.33  -12.96    7.36
    2.39  -12.80    3.30
   -9.89   -7.80    6.22
   -3.29  -11.83    5.42
   -9.35   -9.87   -9.27
   -7.77   -9.80   -8.60
   -2.76  -10.57   -8.75
    0.07  -13.60    7.21
    4.07  -12.91   -0.93
   -0.30  -12.26    2.43
    2.22  -12.79   -4.66
   -8.27   -7.91   -8.16
   -6.11  -11.15    1.76
   -4.34  -11.50    1.85
   -1.55  -14.42    7.17
    1.41  -11.91    7.40
   -7.79  -12.23    7.51
    3.89  -11.82   -7.21
   -6.21  -13.10    9.50
  -11.36   -6.87   -9.13
   -5.50  -13.41    4.25
   -1.53  -13.56   -8.46
    3.46  -12.04    1.33
   -7.77   -8.82   -2.58
  -10.26   -6.84   -7.79
    0.96  -14.23   -3.87
    0.25  -11.59   -6.09
   -6.25  -13.08    2.10
   -1.19  -12.93   -6.38
   -6.72  -10.81    8.10
    1.87  -12.26   -7.13
   -6.87  -10.04    5.46
    1.40  -13.70    3.05
   -6.25   -9.03    8.38
    2.01  -12.55    9.13
    2.62  -12.57   -3.77
   -7.11  -11.72   -0.76
   -1.18  -10.82   -1.80
   -0.89  -14.47    4.10
   -3.99  -13.92    2.34
   -1.70  -12.97   -7.67
    0.38  -11.49    9.38
   -2.93  -14.19   -5.58
   -2.59  -10.75   -3.02
  -12.60   -6.56   -7.50
    0.77  -10.97    3.06
   -9.75   -8.33   -3.68
   -3.82  -10.94   -1.21
   -7.19  -11.71    5.78
  -13.15   -4.92    5.82
   -3.22  -10.41   -7.13
   -1.95  -14.37   -5.17
   -7.84  -12.20    9.50
    1.51  -13.49   -8.51
  -12.85   -6.72   -8.79
  -12.39   -7.35   -2.14
    1.59  -13.41    0.11
   -2.05  -12.76    5.60
  -11.01   -7.55    8.38
   -4.79  -12.91   -8.71
   -8.38  -10.85   -1.13
   -3.24  -13.89    5.30
   -6.99   -8.40   -7.50
    0.23  -14.50   -5.50
    5.25  -12.78    5.99
    2.49  -13.27   -9.50
    0.73  -10.81   -5.68
    0.95  -12.89    5.97
   -7.72   -8.57   -8.68
    2.42  -13.50    5.79
   -9.71  -10.73   -7.86
    0.40  -14.49   -7.19
    1.80  -13.79    1.35
    3.95  -13.12    1.11
  -11.07   -5.80    9.49
    0.37  -11.87   -8.29
   -2.43   -9.87   -3.58
   -1.35  -12.91    4.67
   -3.31  -14.08    7.52
   -2.35   -9.88   -2.58
   -4.14  -11.09   -2.21
   -9.14   -8.69    7.44
   -5.52   -8.60    7.80
   -2.65  -11.04   -5.46
   -9.36  -11.06   -3.59
    1.58  -11.45    5.82
   -1.84  -10.96   -8.77
  -10.42   -6.94   -3.55
   -6.62  -12.90    6.21
   -5.75  -10.37   -6.91
   -0.16  -12.19    6.63
   -0.56  -11.09   -5.76
   -3.40  -10.01   -1.06
   -0.20  -11.87   -1.45
   -1.12  -14.46    1.96
   -1.80  -13.62    3.07
   -4.60  -10.34   -5.70
    3.67  -11.56    2.32
   -9.77  -10.62    6.91
    0.26  -11.45   -7.10
   -5.86   -9.53   -8.47
    0.70  -14.48    6.54
   -2.17   -9.86    0.31
    1.72  -12.63   -9.44
    3.48  -14.08    3.65
   -4.73   -9.64    8.63
   -4.08   -9.37    7.91
   -9.04  -10.21   -2.88
    2.90  -12.70   -8.79
    0.69  -12.89   -8.47
  -11.10   -7.20    6.63
  -11.75   -8.50    9.09
   -7.89  -12.06    3.46
   -9.93   -7.61   -8.34
  -10.45  -10.03    6.46
   -1.10  -11.90   -5.51
    4.32  -12.89   -1.96
   -6.05  -11.49   -8.54
    1.15  -13.69   -5.75
    3.60  -11.77    4.34
    0.85  -14.48    8.42
   -0.67  -10.80   -3.68
  -11.81   -8.22   -6.27
   -9.34  -10.87    3.41
    4.52  -13.08    5.35
   -2.49  -11.58   -7.08
    3.60  -13.22   -9.29
    0.17  -12.03   -0.48
   -6.93  -11.73    1.13
   -4.05   -9.53   -7.40
  -10.27  -10.22   -8.52
   -3.33  -13.10   -7.67
   -4.26   -9.75    5.75
   -0.99  -14.06    6.40
   -9.04  -11.34    9.50
   -1.08  -14.45   -8.53
   -5.97  -10.40    0.15
   -7.88   -9.78    5.36
  -11.86   -6.61    6.36
   -2.39  -14.29   -7.04
   -6.85   -9.15    9.23
   -1.66  -11.71   -0.68
    1.86  -14.38    8.41
   -5.00  -11.63   -2.19
   -4.11  -12.85    7.79
   -0.81  -14.48   -9.50
   -6.87  -12.76    5.01
   -7.92   -8.99    1.01
   -2.39  -14.30    7.82
    0.97  -12.87   -1.74
   -1.20  -13.62   -7.10
   -4.27  -11.42    9.39
    3.86  -11.99   -2.01
  -11.86   -8.34   -7.96
    0.31  -13.61    6.24
   -6.79  -12.01    6.64
  -10.25   -7.81   -4.82
  -10.02  -10.42   -1.41
   -9.30  -11.13    8.48
   -2.18  -12.01    2.82
    5.39  -13.46   -5.60
   -2.77  -14.18   -0.81
  -12.00   -7.08    7.94
   -0.53  -13.10    6.44
   -7.99   -8.02   -5.38
    4.93  -13.64   -3.60
   -2.56  -13.12    9.50
   -4.31  -13.84   -6.88
   -1.64  -12.00    4.96
    4.53  -13.78   -0.26
    1.92  -12.58   -1.84
   -7.69  -11.02   -9.49
   -8.91  -11.26   -7.57
   -7.50   -9.21   -9.43
    0.69  -13.67   -0.24
   -6.93   -9.61    3.39
    0.10  -11.42   -5.08
   -6.24   -8.65   -8.11
   -1.89  -14.38   -9.49
  -11.82   -7.26   -2.97
   -9.86   -7.92   -2.77
    5.59  -13.38   -1.57
    5.33  -13.49    1.71
    6.56  -12.93    0.47
  -10.50   -9.96    9.49
   -7.74   -9.71   -6.20
   -0.46  -13.59    3.60
    1.64  -14.41    0.02
   -6.14  -13.13   -2.67
   -9.88   -7.45    2.46
   -4.75  -10.94   -3.07
   -5.63   -8.82    6.33
    1.61  -11.93   -2.54
   -1.70  -12.33    9.50
    0.23  -10.81    4.14
   -5.43  -10.19   -0.66
    1.55  -14.41   -2.29
    2.90  -14.21   -3.43
   -7.87   -9.20   -7.79
  -11.13   -9.29    6.59
   -2.69  -11.38    4.75
   -3.68  -10.77   -9.48
    1.16  -12.00   -8.91
    1.68  -14.40    6.24
    3.63  -14.04   -5.27
   -2.84  -12.50   -6.40
   -1.06  -10.66    5.18
    1.18  -11.43   -3.33
   -5.41   -9.39   -9.50
   -3.28   -9.49   -2.14
    5.02  -12.09    3.48
   -6.05  -11.73   -5.72
   -0.53  -14.46    7.20
   -6.22  -13.10   -9.34
   -6.68   -8.87    4.03
    1.17  -13.64    6.80
    1.87  -11.91   -5.00
   -6.19   -8.04    6.02
   -9.79   -7.03    6.95
    1.96  -14.37   -7.02
   -7.55  -10.02    9.50
  -11.11   -9.31    3.94
    3.66  -12.23   -0.31
    2.01  -12.62    6.04
   -9.60   -7.34   -5.47
   -1.02  -14.46   -2.80
   -0.90  -13.84    7.89
   -5.93  -12.19   -6.60
   -6.96  -11.69   -9.50
   -8.11  -11.77   -7.87
   -0.80  -10.74    9.05
    5.12  -12.64   -6.63
   -2.38  -10.27    2.03
  -12.07   -7.65    9.50
    1.98  -14.36    3.53
   -1.84  -11.77   -2.69
   -5.29  -13.50   -9.36
   -9.50   -7.32   -7.29
    2.70  -13.56   -5.08
   -3.37   -9.68   -3.23
   -2.60  -12.47    6.87
    2.75  -12.46   -6.70
   -4.58  -11.20   -9.49
    2.75  -13.99   -0.97
   -7.11  -12.64    3.18
   -4.35  -10.93   -4.89
  -10.41  -10.09   -9.50
   -3.32   -9.95    8.47
   -9.81  -10.68    9.50
    1.51  -13.63   -9.50
   -6.54  -11.77    8.58
    1.56  -13.45    8.60
   -9.42  -11.02    5.32
[...]
POINT_DATA 2000
SCALARS radius float
LOOKUP_TABLE default
  0.500000000000000     
  0.500000000000000     
  0.500000000000000     
  0.500000000000000     
  0.500000000000000     
  0.500000000000000     
  0.500000000000000     
  0.500000000000000     
  0.500000000000000     
  0.500000000000000     
  0.500000000000000     
  0.500000000000000     
  0.500000000000000     
  0.500000000000000     
  0.500000000000000     
  0.500000000000000     
  0.500000000000000     
  0.500000000000000     
  0.500000000000000     
  0.500000000000000     
  0.500000000000000     
  0.500000000000000     
  0.500000000000000     
  0.500000000000000     
  0.500000000000000     
  0.500000000000000     
  0.500000000000000     
  0.500000000000000     
  0.500000000000000     
  0.500000000000000     
  0.500000000000000     
  0.500000000000000     
  0.500000000000000     
  0.500000000000000     
  0.500000000000000     
  0.500000000000000     
  0.500000000000000     
  0.500000000000000     
  0.500000000000000     
  0.500000000000000     
  0.500000000000000     
  0.500000000000000     
  0.500000000000000     
  0.500000000000000     
  0.500000000000000     
  0.500000000000000     
  0.500000000000000     
  0.500000000000000     
  0.500000000000000     
  0.500000000000000     
  0.500000000000000     
  0.500000000000000     
  0.500000000000000     
  0.500000000000000     
  0.500000000000000     
  0.500000000000000     
  0.500000000000000     
  0.500000000000000     
  0.500000000000000     
  0.500000000000000     
  0.500000000000000     
  0.500000000000000     
  0.500000000000000     
  0.500000000000000     
  0.500000000000000     
  0.500000000000000     
  0.500000000000000     
  0.500000000000000     
  0.500000000000000     
  0.500000000000000     
  0.500000000000000     
  0.500000000000000     
  0.500000000000000     
  0.500000000000000     
  0.500000000000000     
  0.500000000000000     
  0.500000000000000     
  0.500000000000000     
  0.500000000000000     
  0.500000000000000     
  0.500000000000000     
  0.500000000000000     
  0.500000000000000     
  0.500000000000000     
  0.500000000000000     
  0.500000000000000     
  0.500000000000000     
  0.500000000000000     
  0.500000000000000     
  0.500000000000000     
  0.500000000000000     
  0.500000000000000     
  0.500000000000000     
  0.500000000000000     
  0.500000000000000     
  0.500000000000000     
  0.500000000000000     
  0.500000000000000     
  0.500000000000000     
  0.500000000000000     
  0.500000000000000     
  0.500000000000000     
  0.500000000000000     
  0.500000000000000     
  0.500000000000000     
  0.500000000000000     
  0.500000000000000     
  0.500000000000000     
  0.500000000000000     
  0.500000000000000     
  0.500000000000000     
  0.500000000000000     
  0.500000000000000     
  0.500000000000000     
  0.500000000000000     
  0.500000000000000     
  0.500000000000000     
  0.500000000000000     
  0.500000000000000     
  0.500000000000000     
  0.500000000000000     
  0.500000000000000     
  0.500000000000000     
  0.500000000000000     
  0.500000000000000     
  0.500000000000000     
  0.500000000000000     
  0.500000000000000     
  0.500000000000000     
  0.500000000000000     
  0.500000000000000     
  0.500000000000000     
  0.500000000000000     
  0.500000000000000     
  0.500000000000000     
  0.500000000000000     
  0.500000000000000     
  0.500000000000000     
  0.500000000000000     
  0.500000000000000     
  0.500000000000000     
  0.500000000000000     
  0.500000000000000     
  0.500000000000000     
  0.500000000000000     
  0.500000000000000     
  0.500000000000000     
  0.500000000000000     
  0.500000000000000     
  0.500000000000000     
  0.500000000000000     
  0.500000000000000     
  0.500000000000000     
  0.500000000000000     
  0.500000000000000     
  0.500000000000000     
  0.500000000000000     
  0.500000000000000     
  0.500000000000000     
  0.500000000000000     
  0.500000000000000     
  0.500000000000000     
  0.500000000000000     
  0.500000000000000     
  0.500000000000000     
  0.500000000000000     
  0.500000000000000     
  0.500000000000000     
  0.500000000000000     
  0.500000000000000     
  0.500000000000000     
  0.500000000000000     
  0.500000000000000     
  0.500000000000000     
  0.500000000000000     
  0.500000000000000     
  0.500000000000000     
  0.500000000000000     
  0.500000000000000     
  0.500000000000000     
  0.500000000000000     
  0.500000000000000     
  0.500000000000000     
  0.500000000000000     
  0.500000000000000     
  0.500000000000000     
  0.500000000000000     
  0.500000000000000     
  0.500000000000000     
  0.500000000000000     
  0.500000000000000     
  0.500000000000000     
  0.500000000000000     
  0.500000000000000     
  0.500000000000000     
  0.500000000000000     
  0.500000000000000     
  0.500000000000000     
  0.500000000000000     
  0.500000000000000     
  0.500000000000000     
  0.500000000000000     
  0.500000000000000     
  0.500000000000000     
  0.500000000000000     
  0.500000000000000     
  0.500000000000000     
  0.500000000000000     
  0.500000000000000     
  0.500000000000000     
  0.500000000000000     
  0.500000000000000     
  0.500000000000000     
  0.500000000000000     
  0.500000000000000     
  0.500000000000000     
  0.500000000000000     
  0.500000000000000     
  0.500000000000000     
  0.500000000000000     
  0.500000000000000     
  0.500000000000000     
  0.500000000000000     
  0.500000000000000     
  0.500000000000000     
  0.500000000000000     
  0.500000000000000     
  0.500000000000000     
  0.500000000000000     
  0.500000000000000     
  0.500000000000000     
  0.500000000000000     
  0.500000000000000     
  0.500000000000000     
  0.500000000000000     
  0.500000000000000     
  0.500000000000000     
  0.500000000000000     
  0.500000000000000     
  0.500000000000000     
  0.500000000000000     
  0.500000000000000     
  0.500000000000000     
  0.500000000000000     
  0.500000000000000     
  0.500000000000000     
  0.500000000000000     
  0.500000000000000     
  0.500000000000000     
  0.500000000000000     
  0.500000000000000     
  0.500000000000000     
  0.500000000000000     
  0.500000000000000     
  0.500000000000000     
  0.500000000000000     
  0.500000000000000     
  0.500000000000000     
  0.500000000000000     
  0.500000000000000     
  0.500000000000000     
  0.500000000000000     
  0.500000000000000     
  0.500000000000000     
  0.500000000000000     
  0.500000000000000     
  0.500000000000000     
  0.500000000000000     
  0.500000000000000     
  0.500000000000000     
  0.500000000000000     
  0.500000000000000     
  0.500000000000000     
  0.500000000000000     
  0.500000000000000     
  0.500000000000000     
  0.500000000000000     
  0.500000000000000     
  0.500000000000000     
  0.500000000000000     
  0.500000000000000     
  0.500000000000000     
  0.500000000000000     
  0.500000000000000     
  0.500000000000000     
  0.500000000000000     
  0.500000000000000     
  0.500000000000000     
  0.500000000000000     
  0.500000000000000     
  0.500000000000000     
  0.500000000000000     
  0.500000000000000     
  0.500000000000000     
  0.500000000000000     
  0.500000000000000     
  0.500000000000000     
  0.500000000000000     
  0.500000000000000     
  0.500000000000000     
  0.500000000000000     
  0.500000000000000     
  0.500000000000000     
  0.500000000000000     
  0.500000000000000     
  0.500000000000000     
  0.500000000000000     
  0.500000000000000     
  0.500000000000000     
  0.500000000000000     
  0.500000000000000     
  0.500000000000000     
  0.500000000000000     
  0.500000000000000     
  0.500000000000000     
  0.500000000000000     
  0.500000000000000     
  0.500000000000000     
  0.500000000000000     
  0.500000000000000     
  0.500000000000000     
  0.500000000000000     
  0.500000000000000     
  0.500000000000000     
  0.500000000000000     
  0.500000000000000     
  0.500000000000000     
  0.500000000000000     
  0.500000000000000     
  0.500000000000000     
  0.500000000000000     
  0.500000000000000     
  0.500000000000000     
  0.500000000000000     
  0.500000000000000     
  0.500000000000000     
  0.500000000000000     
  0.500000000000000     
  0.500000000000000     
  0.500000000000000     
  0.500000000000000     
  0.500000000000000     
  0.500000000000000     
  0.500000000000000     
  0.500000000000000     
  0.500000000000000     
  0.500000000000000     
  0.500000000000000     
  0.500000000000000     
  0.500000000000000     
  0.500000000000000     
  0.500000000000000     
  0.500000000000000     
  0.500000000000000     
  0.500000000000000     
  0.500000000000000     
  0.500000000000000     
  0.500000000000000     
  0.500000000000000     
  0.500000000000000     
  0.500000000000000     
  0.500000000000000     
  0.500000000000000     
  0.500000000000000     
  0.500000000000000     
  0.500000000000000     
  0.500000000000000     
  0.500000000000000     
  0.500000000000000     
  0.500000000000000     
  0.500000000000000     
  0.500000000000000     
  0.500000000000000     
  0.500000000000000     
  0.500000000000000     
  0.500000000000000     
  0.500000000000000     
  0.500000000000000     
  0.500000000000000     
  0.500000000000000     
  0.500000000000000     
  0.500000000000000     
  0.500000000000000     
  0.500000000000000     
  0.500000000000000     
  0.500000000000000     
  0.500000000000000     
  0.500000000000000     
  0.500000000000000     
  0.500000000000000     
  0.500000000000000     
  0.500000000000000     
  0.500000000000000     
  0.500000000000000     
  0.500000000000000     
  0.500000000000000     
  0.500000000000000     
  0.500000000000000     
  0.500000000000000     
  0.500000000000000     
  0.500000000000000     
  0.500000000000000     
  0.500000000000000     
  0.500000000000000     
  0.500000000000000     
  0.500000000000000     
  0.500000000000000     
  0.500000000000000     
  0.500000000000000     
  0.500000000000000     
  0.500000000000000     
  0.500000000000000     
  0.500000000000000     
  0.500000000000000     
  0.500000000000000     
  0.500000000000000     
  0.500000000000000     
  0.500000000000000     
  0.500000000000000     
  0.500000000000000     
  0.500000000000000     
  0.500000000000000     
  0.500000000000000     
  0.500000000000000     
  0.500000000000000     
  0.500000000000000     
  0.500000000000000     
  0.500000000000000     
  0.500000000000000     
  0.500000000000000     
  0.500000000000000     
  0.500000000000000     
  0.500000000000000     
  0.500000000000000     
  0.500000000000000     
  0.500000000000000     
  0.500000000000000     
  0.500000000000000     
  0.500000000000000     
  0.500000000000000     
  0.500000000000000     
  0.500000000000000     
  0.500000000000000     
  0.500000000000000     
  0.500000000000000     
  0.500000000000000     
  0.500000000000000     
  0.500000000000000     
  0.500000000000000     
  0.500000000000000     
  0.500000000000000     
  0.500000000000000     
  0.500000000000000     
  0.500000000000000     
  0.500000000000000     
  0.500000000000000     
  0.500000000000000     
  0.500000000000000     
  0.500000000000000     
  0.500000000000000     
  0.500000000000000     
  0.500000000000000     
  0.500000000000000     
  0.500000000000000     
  0.500000000000000     
  0.500000000000000     
  0.500000000000000     
  0.500000000000000     
  0.500000000000000     
  0.500000000000000     
  0.500000000000000     
  0.500000000000000     
  0.500000000000000     
  0.500000000000000     
  0.500000000000000     
  0.500000000000000     
  0.500000000000000     
  0.500000000000000     
  0.500000000000000     
  0.500000000000000     
  0.500000000000000     
  0.500000000000000     
  0.500000000000000     
  0.500000000000000     
  0.500000000000000     
  0.500000000000000     
  0.500000000000000     
  0.500000000000000     
  0.500000000000000     
  0.500000000000000     
  0.500000000000000     
  0.500000000000000     
  0.500000000000000     
  0.500000000000000     
  0.500000000000000     
  0.500000000000000     
  0.500000000000000     
  0.500000000000000     
  0.500000000000000     
  0.500000000000000     
  0.500000000000000     
  0.500000000000000     
  0.500000000000000     
  0.500000000000000     
  0.500000000000000     
  0.500000000000000     
  0.500000000000000     
  0.500000000000000     
  0.500000000000000     
  0.500000000000000     
  0.500000000000000     
  0.500000000000000     
  0.500000000000000     
  0.500000000000000     
  0.500000000000000     
  0.500000000000000     
  0.500000000000000     
  0.500000000000000     
  0.500000000000000     
  0.500000000000000     
  0.500000000000000     
  0.500000000000000     
  0.500000000000000     
  0.500000000000000     
  0.500000000000000     
  0.500000000000000     
  0.500000000000000     
  0.500000000000000     
  0.500000000000000     
  0.500000000000000     
  0.500000000000000     
  0.500000000000000     
  0.500000000000000     
  0.500000000000000     
  0.500000000000000     
  0.500000000000000     
  0.500000000000000     
  0.500000000000000     
  0.500000000000000     
  0.500000000000000     
  0.500000000000000     
  0.500000000000000     
  0.500000000000000     
  0.500000000000000     
  0.500000000000000     
  0.500000000000000     
  0.500000000000000     
  0.500000000000000     
  0.500000000000000     
  0.500000000000000     
  0.500000000000000     
  0.500000000000000     
  0.500000000000000     
  0.500000000000000     
  0.500000000000000     
  0.500000000000000     
  0.500000000000000     
  0.500000000000000     
  0.500000000000000     
  0.500000000000000     
  0.500000000000000     
  0.500000000000000     
  0.500000000000000     
  0.500000000000000     
  0.500000000000000     
  0.500000000000000     
  0.500000000000000     
  0.500000000000000     
  0.500000000000000     
  0.500000000000000     
  0.500000000000000     
  0.500000000000000     
  0.500000000000000     
  0.500000000000000     
  0.500000000000000     
  0.500000000000000     
  0.500000000000000     
  0.500000000000000     
  0.500000000000000     
  0.500000000000000     
  0.500000000000000     
  0.500000000000000     
  0.500000000000000     
  0.500000000000000     
  0.500000000000000     
  0.500000000000000     
  0.500000000000000     
  0.500000000000000     
  0.500000000000000     
  0.500000000000000     
  0.500000000000000     
  0.500000000000000     
  0.500000000000000     
  0.500000000000000     
  0.500000000000000     
  0.500000000000000     
  0.500000000000000     
  0.500000000000000     
  0.500000000000000     
  0.500000000000000     
  0.500000000000000     
  0.500000000000000     
  0.500000000000000     
  0.500000000000000     
  0.500000000000000     
  0.500000000000000     
  0.500000000000000     
  0.500000000000000     
  0.500000000000000     
  0.500000000000000     
  0.500000000000000     
  0.500000000000000     
  0.500000000000000     
  0.500000000000000     
  0.500000000000000     
  0.500000000000000     
  0.500000000000000     
  0.500000000000000     
  0.500000000000000     
  0.500000000000000     
  0.500000000000000     
  0.500000000000000     
  0.500000000000000     
  0.500000000000000     
  0.500000000000000     
  0.500000000000000     
  0.500000000000000     
  0.500000000000000     
  0.500000000000000     
  0.500000000000000     
  0.500000000000000     
  0.500000000000000     
  0.500000000000000     
  0.500000000000000     
  0.500000000000000     
  0.500000000000000     
  0.500000000000000     
  0.500000000000000     
  0.500000000000000     
  0.500000000000000     
  0.500000000000000     
  0.500000000000000     
  0.500000000000000     
  0.500000000000000     
  0.500000000000000     
  0.500000000000000     
  0.500000000000000     
  0.500000000000000     
  0.500000000000000     
  0.500000000000000     
  0.500000000000000     
  0.500000000000000     
  0.500000000000000     
  0.500000000000000     
  0.500000000000000     
  0.500000000000000     
  0.500000000000000     
  0.500000000000000     
  0.500000000000000     
  0.500000000000000     
  0.500000000000000     
  0.500000000000000     
  0.500000000000000     
  0.500000000000000     
  0.500000000000000     
  0.500000000000000     
  0.500000000000000     
  0.500000000000000     
  0.500000000000000     
  0.500000000000000     
  0.500000000000000     
  0.500000000000000     
  0.500000000000000     
  0.500000000000000     
  0.500000000000000     
  0.500000000000000     
  0.500000000000000     
  0.500000000000000     
  0.500000000000000     
  0.500000000000000     
  0.500000000000000     
  0.500000000000000     
  0.500000000000000     
  0.500000000000000     
  0.500000000000000     
  0.500000000000000     
  0.500000000000000     
  0.500000000000000     
  0.500000000000000     
  0.500000000000000     
  0.500000000000000     
  0.500000000000000     
  0.500000000000000     
  0.500000000000000     
  0.500000000000000     
  0.500000000000000     
  0.500000000000000     
  0.500000000000000     
  0.500000000000000     
  0.500000000000000     
  0.500000000000000     
  0.500000000000000     
  0.500000000000000     
  0.500000000000000     
  0.500000000000000     
  0.500000000000000     
  0.500000000000000     
  0.500000000000000     
  0.500000000000000     
  0.500000000000000     
  0.500000000000000     
  0.500000000000000     
  0.500000000000000     
  0.500000000000000     
  0.500000000000000     
  0.500000000000000     
  0.500000000000000     
  0.500000000000000     
  0.500000000000000     
  0.500000000000000     
  0.500000000000000     
  0.500000000000000     
  0.500000000000000     
  0.500000000000000     
  0.500000000000000     
  0.500000000000000     
  0.500000000000000     
  0.500000000000000     
  0.500000000000000     
  0.500000000000000     
  0.500000000000000     
  0.500000000000000     
  0.500000000000000     
  0.500000000000000     
  0.500000000000000     
  0.500000000000000     
  0.500000000000000     
  0.500000000000000     
  0.500000000000000     
  0.500000000000000     
  0.500000000000000     
  0.500000000000000     
  0.500000000000000     
  0.500000000000000     
  0.500000000000000     
  0.500000000000000     
  0.500000000000000     
  0.500000000000000     
  0.500000000000000     
  0.500000000000000     
  0.500000000000000     
  0.500000000000000     
  0.500000000000000     
  0.500000000000000     
  0.500000000000000     
  0.500000000000000     
  0.500000000000000     
  0.500000000000000     
  0.500000000000000     
  0.500000000000000     
  0.500000000000000     
  0.500000000000000     
  0.500000000000000     
  0.500000000000000     
  0.500000000000000     
  0.500000000000000     
  0.500000000000000     
  0.500000000000000     
  0.500000000000000     
  0.500000000000000     
  0.500000000000000     
  0.500000000000000     
  0.500000000000000     
  0.500000000000000     
  0.500000000000000     
  0.500000000000000     
  0.500000000000000     
  0.500000000000000     
  0.500000000000000     
  0.500000000000000     
  0.500000000000000     
  0.500000000000000     
  0.500000000000000     
  0.500000000000000     
  0.500000000000000     
  0.500000000000000     
  0.500000000000000     
  0.500000000000000     
  0.500000000000000     
  0.500000000000000     
  0.500000000000000     
  0.500000000000000     
  0.500000000000000     
  0.500000000000000     
  0.500000000000000     
  0.500000000000000     
  0.500000000000000     