# vtk DataFile Version 5.1
Data.vtk
ASCII
DATASET UNSTRUCTURED_GRID
 
POINTS 2000 float
   -0.09  -13.65    0.65
    8.63  -10.57   -0.53
   -2.08  -14.35    5.73
   -0.34  -13.65   -1.74
   -5.05  -11.27    7.26
   -0.94  -13.70   -8.75
    3.04  -10.91   -8.54
   -2.63  -12.97   -8.61
    3.62  -11.11   -3.92
    6.22  -12.06    0.86
   -3.05  -12.92   -1.00
   -0.85  -14.47   -8.12
    2.73  -13.07    0.32
   -1.03  -13.69    2.99
    1.87  -12.94   -0.89
    5.30  -11.15    2.03
    4.25  -10.89    5.47
    0.47  -13.83    7.59
   11.03   -9.41    8.05
    0.32  -13.66   -3.87
    0.15  -14.49   -1.50
    9.29  -11.13    6.89
   -2.76  -11.28   -8.77
    7.09  -12.65   -7.33
    5.22  -12.70    1.67
   -3.79  -11.52   -0.13
    1.44  -14.43    9.50
   -0.25  -12.46    7.42
   -7.75  -10.86    1.67
   -7.05  -12.67    4.18
    0.31  -14.48   -3.30
    2.41  -11.20   -0.89
    0.69  -11.04    4.86
    2.26  -13.59   -3.17
   -5.84  -13.27   -3.73
    4.11  -13.17    8.02
   -1.30  -12.99    7.27
   -2.29  -12.72    5.95
   -0.68  -11.39    0.85
   -0.27  -13.91    3.68
    7.41   -9.29    4.90
   -4.59  -13.75   -0.25
   -5.81  -11.16   -6.05
    0.20  -14.50    2.11
  -10.31  -10.20   -7.07
   -1.23  -10.50    8.06
    4.26  -11.32    4.56
    1.94  -12.62   -5.62
    8.32   -9.40    6.81
    2.12  -12.35   -9.50
    4.68  -12.83   -8.42
   -8.70  -10.56    9.50
    0.91  -11.38    6.67
    6.39  -11.90    2.77
   -0.42  -11.30    4.97
    5.18  -10.96   -1.63
   -0.24  -11.60   -4.42
   -3.72  -11.98    3.45
   -7.94  -12.14   -0.56
   -6.69  -11.60   -2.74
   -5.39  -12.00   -0.59
   -5.35  -11.10    1.17
    1.91  -11.46    6.87
    7.71  -12.28    4.42
    6.97  -12.72    2.72
    3.97  -12.37    0.47
   -1.74  -14.40    0.01
    6.26  -12.31    4.13
    2.79  -14.00    0.69
    2.44  -13.30   -6.17
  -10.86   -9.61    7.58
    5.50  -13.42   -7.49
   -0.65  -13.71   -3.65
    3.46  -10.76    4.34
    6.88  -10.13    4.77
   -3.29  -14.12   -6.06
    3.86  -10.10    5.00
   -2.04  -10.75   -8.32
    4.93  -12.08    3.55
    4.23  -10.44   -4.36
    5.84   -9.74    7.20
    4.96  -10.88    6.35
    3.68  -13.23    0.05
    0.53  -11.11   -8.41
    5.40  -13.46   -8.74
    3.79  -12.49   -7.13
   -5.52  -13.41   -0.06
    0.11  -10.85   -4.98
   -1.51  -11.82    1.20
    7.74   -9.63    7.77
   -0.87  -14.47    0.50
    1.62  -11.87   -7.48
   -6.27  -12.15   -2.02
   -5.11  -12.61    5.84
    7.67  -12.30    5.78
   -0.51  -11.55   -0.29
    0.98  -12.09    3.57
   -3.38  -12.33    4.51
    8.01  -12.09   -0.41
   -7.54  -11.28   -1.91
   -4.29  -13.85    4.23
    8.80  -10.61   -4.42
    0.57  -11.11    3.15
    3.22  -10.64    5.55
   -3.14  -11.92    2.59
    0.92  -11.50   -6.87
   -5.16  -12.75    8.48
    1.89  -12.73   -3.52
   -3.15  -14.15    7.04
    4.07  -12.50    3.81
   -7.78  -11.06    7.26
    4.02  -12.12   -1.79
   10.07  -10.43   -3.98
    2.01  -10.99   -6.32
    8.50  -11.75    4.11
    4.69  -11.17   -7.03
   -5.22  -13.53   -1.91
   -3.99  -12.28   -2.92
    8.56  -11.70    7.26
   -4.80  -13.68    9.46
    7.36   -9.65    6.68
   -7.44  -12.45    7.57
    5.49  -11.56    7.05
    1.66  -11.23    2.35
   -7.56  -11.53    0.68
   -2.45  -10.96   -4.62
    6.93  -10.71   -7.17
   -0.12  -14.50    1.17
    9.28  -10.25   -9.05
    5.37  -10.45   -7.16
    1.24  -13.82   -4.23
    4.51  -11.73    2.72
    0.23  -11.76    1.04
    2.70  -10.58    1.07
   -8.47  -11.77   -9.23
   -4.74  -11.86    8.29
    1.44  -14.43   -6.80
    2.91  -14.21   -5.37
   -2.95  -11.56    9.50
    5.50  -13.41    6.04
    3.77  -13.06   -3.75
   -0.44  -14.49    2.89
    0.60  -13.26   -2.64
   -5.87  -12.44    6.47
   -3.22  -12.41    6.17
    0.03  -13.80    8.48
   -0.57  -13.49    6.27
   -2.90  -11.74   -4.17
    2.13  -13.71   -7.84
    0.49  -12.82   -8.85
    7.13  -11.71    6.49
   -6.03  -11.84    1.13
   -0.39  -12.02    4.27
    3.33  -11.44   -2.03
   -1.91  -12.66   -5.07
   -5.64  -13.36    2.91
   -3.71  -13.24    4.77
   -3.27  -10.92    5.44
   -6.06  -13.17    8.54
    8.51   -9.97    3.83
    1.44  -12.23   -4.74
   -0.74  -10.46    6.86
    4.92  -11.87   -8.56
    7.86  -11.44    0.95
   -2.48  -10.55   -9.39
    6.77  -10.81    1.72
   -0.86  -13.93   -0.33
    6.81  -11.75   -8.78
    3.78  -11.58   -0.23
   -4.67  -11.69   -6.36
    8.51  -11.74   -1.20
   -7.97  -11.19   -8.53
    2.59  -10.59    9.27
   -5.07  -11.50   -5.47
   -1.50  -11.71    3.32
    5.40  -11.19   -0.67
   -0.28  -12.27    8.79
   -9.07  -10.35    7.98
    1.54  -11.45   -1.32
    1.93  -13.04    2.50
    1.26  -14.45   -5.77
    4.95  -10.94    1.12
    8.50  -10.80   -1.55
    1.02  -12.18   -9.50
    5.12  -11.64    9.50
    8.99  -11.34   -5.07
   -2.41  -12.51    0.08
    0.11  -14.50   -6.76
   -5.38  -13.46    7.82
   -2.55  -14.27   -1.87
    3.56  -13.01   -1.84
   -2.53  -13.68    7.97
    9.48  -10.11    9.40
    1.61  -14.21   -9.50
    0.40  -12.22   -5.17
    4.80  -12.03    7.61
   -5.12  -12.29   -7.70
    1.00  -13.73   -7.37
   -2.92  -13.35   -0.11
    9.82  -10.66   -2.99
    3.74  -11.09    6.31
    0.75  -10.62    7.30
    7.83  -12.21   -4.02
    3.87  -12.37   -0.83
   -3.77  -13.93    2.59
   -5.97  -12.24   -3.00
    3.43  -10.79   -5.31
    0.65  -12.72    8.66
    6.05  -10.81   -5.51
    5.02  -11.18   -9.28
   -4.49  -10.67    8.18
   -2.37  -12.45   -9.50
    6.08   -9.71    5.22
   -2.28  -13.35   -2.12
   -6.73  -11.09   -5.29
    8.28   -9.94    1.64
    5.60  -10.19    0.95
   -1.82  -12.71    4.78
   -9.08  -11.30   -6.15
   -5.70  -13.33   -1.04
   -0.35  -11.05    6.16
    8.72  -10.86    7.77
   -6.65  -12.20   -7.30
   -0.07  -11.87   -1.20
    8.46  -11.04    8.75
   -3.30  -10.54    9.50
   -9.40  -11.04   -4.83
    8.82  -11.51   -3.31
   -5.32  -11.74    9.10
   -1.29  -10.65   -9.40
   -3.21  -14.14   -5.04
    3.18  -12.22    5.21
    0.80  -13.79   -6.37
   -1.53  -11.15    6.27
   -2.12  -13.69   -7.14
   -6.14  -13.14   -1.98
   -7.42  -11.59    2.82
    6.43  -10.54    0.51
    1.05  -13.76    4.78
   -3.26  -12.79   -7.59
    3.45  -11.90    4.30
   -5.87  -10.69    7.27
   -0.52  -13.06   -9.40
    6.62  -10.35   -9.42
    3.80  -11.63    3.41
   -3.40  -12.80    2.19
    2.09  -10.69   -8.31
    7.65  -11.46   -1.95
   -9.18  -11.22    8.92
    1.41  -11.90    8.89
    1.62  -12.28    1.29
   -3.18  -14.15   -9.50
   -2.89  -12.09   -8.21
    3.12  -14.16    7.14
   11.22   -9.18    5.96
    4.15  -12.50    5.78
   -3.30  -12.90   -9.35
    5.47  -13.43    4.48
    0.58  -13.10   -5.62
    2.57  -13.15   -1.79
   10.33  -10.17   -6.89
   -6.10  -11.55   -7.83
   -8.79  -11.53    2.88
   -4.83  -11.82    5.30
   -5.93  -13.19   -5.86
    4.55  -13.75   -6.12
    7.06  -12.67    5.08
   -6.38  -10.83    1.72
    1.49  -12.78   -8.85
   -4.68  -11.59   -8.85
    3.29  -13.18   -0.89
    0.29  -12.25    2.86
    9.03  -11.34   -7.86
    8.31   -9.89   -8.34
   -3.99  -10.48   -6.43
    2.64  -12.48    7.93
    6.94  -11.82    3.59
    5.36  -10.18    7.96
    4.63  -12.13   -6.73
   -5.24  -12.51    0.27
   -4.19  -12.64    6.23
    9.45  -11.00    8.61
    3.84  -13.03   -6.27
   -2.20  -10.90    9.50
   -6.53  -12.31    2.19
    2.04  -11.22    0.50
    2.33  -12.20    0.58
    7.75  -10.67    7.94
    4.28  -12.01   -4.07
    5.19  -10.56    5.43
   -2.22  -13.47    5.29
  -10.13  -10.38    7.69
    0.28  -12.53   -1.89
    4.90  -11.92   -4.85
    6.59  -10.28    6.82
    1.51  -13.84   -0.53
    3.68  -14.03   -7.99
    6.00  -10.81    7.46
    2.33  -14.31    6.55
    1.43  -14.43   -7.94
    1.22  -13.04    1.80
    5.56  -13.39    7.49
    5.49  -11.50    2.95
    3.84  -11.28   -1.18
   10.38   -9.29    2.15
    2.42  -12.18    8.86
    6.04  -10.65    4.90
    5.52  -13.41   -6.49
    1.12  -13.01   -1.64
   -8.18  -11.25    8.99
    2.56  -12.21   -7.48
    7.14  -11.09    4.87
    6.31  -11.17   -0.26
   -9.25  -11.17   -0.02
   -0.64  -11.67   -7.69
    5.36  -10.90   -3.68
    2.46  -11.49   -9.11
    8.46  -10.58   -3.36
   -7.23  -12.57    2.85
   -5.12  -11.28   -7.70
   -0.15  -12.38   -8.20
    1.69  -11.41   -4.11
    1.98  -13.36    1.23
    1.73  -13.18   -4.82
   -5.80  -10.95   -4.44
   10.55   -9.95   -1.62
    3.12  -12.65    3.52
    7.26   -9.92    5.66
   -2.47  -12.77   -6.97
   -4.43  -12.88    4.05
    1.67  -11.58   -2.32
   -1.34  -13.59    0.54
   -3.63  -14.04   -0.26
    2.96  -12.25   -1.58
    7.48  -11.23    8.76
   -3.69  -13.11    0.48
   -7.58  -10.15    6.88
   -2.77  -14.23    4.07
   -4.26  -12.34    0.18
    7.19  -11.54   -0.58
    3.29  -12.05   -3.98
    9.49   -9.75   -7.23
    8.93  -10.72    6.05
   -1.06  -12.10    5.01
    3.21  -11.40   -7.69
    0.09  -12.09   -7.08
   -1.67  -10.68    7.15
   -1.91  -11.62    0.30
    2.43  -13.32   -4.12
   -1.20  -14.45    7.43
   -5.68  -13.34   -4.90
    0.02  -12.22   -9.50
   -4.88  -12.86   -0.59
   -6.43  -11.88    4.13
    0.78  -12.09   -6.08
    2.92  -11.18    3.61
    5.80  -10.74   -2.79
    6.84  -11.93    9.06
   -6.21  -10.96    5.05
   -8.55  -11.71   -7.02
    0.73  -10.65    9.50
    5.38  -12.60    9.50
    5.70  -11.55   -4.36
    2.43  -14.30    9.50
   11.18   -9.23    9.49
   -2.21  -11.16    2.88
   -7.16  -12.61    9.32
    6.27  -12.23   -7.74
   -1.84  -11.65   -5.00
   -3.39  -10.75    7.98
    3.83  -13.49   -7.16
   -7.71  -11.18   -9.50
    6.15  -12.26   -3.82
    1.82  -13.50    9.50
   -4.40  -11.78   -1.49
   -5.22  -13.47    4.32
    7.32  -10.62    4.01
    0.63  -11.36   -3.51
    3.38  -12.58   -4.82
   -2.95  -13.67   -7.97
    7.40  -10.89   -9.11
    0.48  -11.64   -0.39
    5.87  -11.48   -2.13
    8.09  -11.03    6.68
   -3.07  -12.01   -2.63
   -4.89  -10.87   -9.50
    4.73  -11.74   -1.18
    6.57  -12.93    0.27
    2.44  -11.87   -3.45
   -1.09  -10.84   -8.01
    6.76  -12.83    8.62
    8.64  -11.64    5.80
    2.97  -11.44   -4.70
   11.38   -8.98    5.00
   -0.84  -11.78    6.62
    8.21  -10.91    3.65
[...]
POINT_DATA 2000
SCALARS radius float
LOOKUP_TABLE default
  0.500000000000000     
  0.500000000000000     
  0.500000000000000     
  0.500000000000000     
  0.500000000000000     
  0.500000000000000     
  0.500000000000000     
  0.500000000000000     
  0.500000000000000     
  0.500000000000000     
  0.500000000000000     
  0.500000000000000     
  0.500000000000000     
  0.500000000000000     
  0.500000000000000     
  0.500000000000000     
  0.500000000000000     
  0.500000000000000     
  0.500000000000000     
  0.500000000000000     
  0.500000000000000     
  0.500000000000000     
  0.500000000000000     
  0.500000000000000     
  0.500000000000000     
  0.500000000000000     
  0.500000000000000     
  0.500000000000000     
  0.500000000000000     
  0.500000000000000     
  0.500000000000000     
  0.500000000000000     
  0.500000000000000     
  0.500000000000000     
  0.500000000000000     
  0.500000000000000     
  0.500000000000000     
  0.500000000000000     
  0.500000000000000     
  0.500000000000000     
  0.500000000000000     
  0.500000000000000     
  0.500000000000000     
  0.500000000000000     
  0.500000000000000     
  0.500000000000000     
  0.500000000000000     
  0.500000000000000     
  0.500000000000000     
  0.500000000000000     
  0.500000000000000     
  0.500000000000000     
  0.500000000000000     
  0.500000000000000     
  0.500000000000000     
  0.500000000000000     
  0.500000000000000     
  0.500000000000000     
  0.500000000000000     
  0.500000000000000     
  0.500000000000000     
  0.500000000000000     
  0.500000000000000     
  0.500000000000000     
  0.500000000000000     
  0.500000000000000     
  0.500000000000000     
  0.500000000000000     
  0.500000000000000     
  0.500000000000000     
  0.500000000000000     
  0.500000000000000     
  0.500000000000000     
  0.500000000000000     
  0.500000000000000     
  0.500000000000000     
  0.500000000000000     
  0.500000000000000     
  0.500000000000000     
  0.500000000000000     
  0.500000000000000     
  0.500000000000000     
  0.500000000000000     
  0.500000000000000     
  0.500000000000000     
  0.500000000000000     
  0.500000000000000     
  0.500000000000000     
  0.500000000000000     
  0.500000000000000     
  0.500000000000000     
  0.500000000000000     
  0.500000000000000     
  0.500000000000000     
  0.500000000000000     
  0.500000000000000     
  0.500000000000000     
  0.500000000000000     
  0.500000000000000     
  0.500000000000000     
  0.500000000000000     
  0.500000000000000     
  0.500000000000000     
  0.500000000000000     
  0.500000000000000     
  0.500000000000000     
  0.500000000000000     
  0.500000000000000     
  0.500000000000000     
  0.500000000000000     
  0.500000000000000     
  0.500000000000000     
  0.500000000000000     
  0.500000000000000     
  0.500000000000000     
  0.500000000000000     
  0.500000000000000     
  0.500000000000000     
  0.500000000000000     
  0.500000000000000     
  0.500000000000000     
  0.500000000000000     
  0.500000000000000     
  0.500000000000000     
  0.500000000000000     
  0.500000000000000     
  0.500000000000000     
  0.500000000000000     
  0.500000000000000     
  0.500000000000000     
  0.500000000000000     
  0.500000000000000     
  0.500000000000000     
  0.500000000000000     
  0.500000000000000     
  0.500000000000000     
  0.500000000000000     
  0.500000000000000     
  0.500000000000000     
  0.500000000000000     
  0.500000000000000     
  0.500000000000000     
  0.500000000000000     
  0.500000000000000     
  0.500000000000000     
  0.500000000000000     
  0.500000000000000     
  0.500000000000000     
  0.500000000000000     
  0.500000000000000     
  0.500000000000000     
  0.500000000000000     
  0.500000000000000     
  0.500000000000000     
  0.500000000000000     
  0.500000000000000     
  0.500000000000000     
  0.500000000000000     
  0.500000000000000     
  0.500000000000000     
  0.500000000000000     
  0.500000000000000     
  0.500000000000000     
  0.500000000000000     
  0.500000000000000     
  0.500000000000000     
  0.500000000000000     
  0.500000000000000     
  0.500000000000000     
  0.500000000000000     
  0.500000000000000     
  0.500000000000000     
  0.500000000000000     
  0.500000000000000     
  0.500000000000000     
  0.500000000000000     
  0.500000000000000     
  0.500000000000000     
  0.500000000000000     
  0.500000000000000     
  0.500000000000000     
  0.500000000000000     
  0.500000000000000     
  0.500000000000000     
  0.500000000000000     
  0.500000000000000     
  0.500000000000000     
  0.500000000000000     
  0.500000000000000     
  0.500000000000000     
  0.500000000000000     
  0.500000000000000     
  0.500000000000000     
  0.500000000000000     
  0.500000000000000     
  0.500000000000000     
  0.500000000000000     
  0.500000000000000     
  0.500000000000000     
  0.500000000000000     
  0.500000000000000     
  0.500000000000000     
  0.500000000000000     
  0.500000000000000     
  0.500000000000000     
  0.500000000000000     
  0.500000000000000     
  0.500000000000000     
  0.500000000000000     
  0.500000000000000     
  0.500000000000000     
  0.500000000000000     
  0.500000000000000     
  0.500000000000000     
  0.500000000000000     
  0.500000000000000     
  0.500000000000000     
  0.500000000000000     
  0.500000000000000     
  0.500000000000000     
  0.500000000000000     
  0.500000000000000     
  0.500000000000000     
  0.500000000000000     
  0.500000000000000     
  0.500000000000000     
  0.500000000000000     
  0.500000000000000     
  0.500000000000000     
  0.500000000000000     
  0.500000000000000     
  0.500000000000000     
  0.500000000000000     
  0.500000000000000     
  0.500000000000000     
  0.500000000000000     
  0.500000000000000     
  0.500000000000000     
  0.500000000000000     
  0.500000000000000     
  0.500000000000000     
  0.500000000000000     
  0.500000000000000     
  0.500000000000000     
  0.500000000000000     
  0.500000000000000     
  0.500000000000000     
  0.500000000000000     
  0.500000000000000     
  0.500000000000000     
  0.500000000000000     
  0.500000000000000     
  0.500000000000000     
  0.500000000000000     
  0.500000000000000     
  0.500000000000000     
  0.500000000000000     
  0.500000000000000     
  0.500000000000000     
  0.500000000000000     
  0.500000000000000     
  0.500000000000000     
  0.500000000000000     
  0.500000000000000     
  0.500000000000000     
  0.500000000000000     
  0.500000000000000     
  0.500000000000000     
  0.500000000000000     
  0.500000000000000     
  0.500000000000000     
  0.500000000000000     
  0.500000000000000     
  0.500000000000000     
  0.500000000000000     
  0.500000000000000     
  0.500000000000000     
  0.500000000000000     
  0.500000000000000     
  0.500000000000000     
  0.500000000000000     
  0.500000000000000     
  0.500000000000000     
  0.500000000000000     
  0.500000000000000     
  0.500000000000000     
  0.500000000000000     
  0.500000000000000     
  0.500000000000000     
  0.500000000000000     
  0.500000000000000     
  0.500000000000000     
  0.500000000000000     
  0.500000000000000     
  0.500000000000000     
  0.500000000000000     
  0.500000000000000     
  0.500000000000000     
  0.500000000000000     
  0.500000000000000     
  0.500000000000000     
  0.500000000000000     
  0.500000000000000     
  0.500000000000000     
  0.500000000000000     
  0.500000000000000     
  0.500000000000000     
  0.500000000000000     
  0.500000000000000     
  0.500000000000000     
  0.500000000000000     
  0.500000000000000     
  0.500000000000000     
  0.500000000000000     
  0.500000000000000     
  0.500000000000000     
  0.500000000000000     
  0.500000000000000     
  0.500000000000000     
  0.500000000000000     
  0.500000000000000     
  0.500000000000000     
  0.500000000000000     
  0.500000000000000     
  0.500000000000000     
  0.500000000000000     
  0.500000000000000     
  0.500000000000000     
  0.500000000000000     
  0.500000000000000     
  0.500000000000000     
  0.500000000000000     
  0.500000000000000     
  0.500000000000000     
  0.500000000000000     
  0.500000000000000     
  0.500000000000000     
  0.500000000000000     
  0.500000000000000     
  0.500000000000000     
  0.500000000000000     
  0.500000000000000     
  0.500000000000000     
  0.500000000000000     
  0.500000000000000     
  0.500000000000000     
  0.500000000000000     
  0.500000000000000     
  0.500000000000000     
  0.500000000000000     
  0.500000000000000     
  0.500000000000000     
  0.500000000000000     
  0.500000000000000     
  0.500000000000000     
  0.500000000000000     
  0.500000000000000     
  0.500000000000000     
  0.500000000000000     
  0.500000000000000     
  0.500000000000000     
  0.500000000000000     
  0.500000000000000     
  0.500000000000000     
  0.500000000000000     
  0.500000000000000     
  0.500000000000000     
  0.500000000000000     
  0.500000000000000     
  0.500000000000000     
  0.500000000000000     
  0.500000000000000     
  0.500000000000000     
  0.500000000000000     
  0.500000000000000     
  0.500000000000000     
  0.500000000000000     
  0.500000000000000     
  0.500000000000000     
  0.500000000000000     
  0.500000000000000     
  0.500000000000000     
  0.500000000000000     
  0.500000000000000     
  0.500000000000000     
  0.500000000000000     
  0.500000000000000     
  0.500000000000000     
  0.500000000000000     
  0.500000000000000     
  0.500000000000000     
  0.500000000000000     
  0.500000000000000     
  0.500000000000000     
  0.500000000000000     
  0.500000000000000     
  0.500000000000000     
  0.500000000000000     
  0.500000000000000     
  0.500000000000000     
  0.500000000000000     
  0.500000000000000     
  0.500000000000000     
  0.500000000000000     
  0.500000000000000     
  0.500000000000000     
  0.500000000000000     
  0.500000000000000     
  0.500000000000000     
  0.500000000000000     
  0.500000000000000     
  0.500000000000000     
  0.500000000000000     
  0.500000000000000     
  0.500000000000000     
  0.500000000000000     
  0.500000000000000     
  0.500000000000000     
  0.500000000000000     
  0.500000000000000     
  0.500000000000000     
  0.500000000000000     
  0.500000000000000     
  0.500000000000000     
  0.500000000000000     
  0.500000000000000     
  0.500000000000000     
  0.500000000000000     
  0.500000000000000     
  0.500000000000000     
  0.500000000000000     
  0.500000000000000     
  0.500000000000000     
  0.500000000000000     
  0.500000000000000     
  0.500000000000000     
  0.500000000000000     
  0.500000000000000     
  0.500000000000000     
  0.500000000000000     
  0.500000000000000     
  0.500000000000000     
  0.500000000000000     
  0.500000000000000     
  0.500000000000000     
  0.500000000000000     
  0.500000000000000     
  0.500000000000000     
  0.500000000000000     
  0.500000000000000     
  0.500000000000000     
  0.500000000000000     
  0.500000000000000     
  0.500000000000000     
  0.500000000000000     
  0.500000000000000     
  0.500000000000000     
  0.500000000000000     
  0.500000000000000     
  0.500000000000000     
  0.500000000000000     
  0.500000000000000     
  0.500000000000000     
  0.500000000000000     
  0.500000000000000     
  0.500000000000000     
  0.500000000000000     
  0.500000000000000     
  0.500000000000000     
  0.500000000000000     
  0.500000000000000     
  0.500000000000000     
  0.500000000000000     
  0.500000000000000     
  0.500000000000000     
  0.500000000000000     
  0.500000000000000     
  0.500000000000000     
  0.500000000000000     
  0.500000000000000     
  0.500000000000000     
  0.500000000000000     
  0.500000000000000     
  0.500000000000000     
  0.500000000000000     
  0.500000000000000     
  0.500000000000000     
  0.500000000000000     
  0.500000000000000     
  0.500000000000000     
  0.500000000000000     
  0.500000000000000     
  0.500000000000000     
  0.500000000000000     
  0.500000000000000     
  0.500000000000000     
  0.500000000000000     
  0.500000000000000     
  0.500000000000000     
  0.500000000000000     
  0.500000000000000     
  0.500000000000000     
  0.500000000000000     
  0.500000000000000     
  0.500000000000000     
  0.500000000000000     
  0.500000000000000     
  0.500000000000000     
  0.500000000000000     
  0.500000000000000     
  0.500000000000000     
  0.500000000000000     
  0.500000000000000     
  0.500000000000000     
  0.500000000000000     
  0.500000000000000     
  0.500000000000000     
  0.500000000000000     
  0.500000000000000     
  0.500000000000000     
  0.500000000000000     
  0.500000000000000     
  0.500000000000000     
  0.500000000000000     
  0.500000000000000     
  0.500000000000000     
  0.500000000000000     
  0.500000000000000     
  0.500000000000000     
  0.500000000000000     
  0.500000000000000     
  0.500000000000000     
  0.500000000000000     
  0.500000000000000     
  0.500000000000000     
  0.500000000000000     
  0.500000000000000     
  0.500000000000000     
  0.500000000000000     
  0.500000000000000     
  0.500000000000000     
  0.500000000000000     
  0.500000000000000     
  0.500000000000000     
  0.500000000000000     
  0.500000000000000     
  0.500000000000000     
  0.500000000000000     
  0.500000000000000     
  0.500000000000000     
  0.500000000000000     
  0.500000000000000     
  0.500000000000000     
  0.500000000000000     
  0.500000000000000     
  0.500000000000000     
  0.500000000000000     
  0.500000000000000     
  0.500000000000000     
  0.500000000000000     
  0.500000000000000     
  0.500000000000000     
  0.500000000000000     
  0.500000000000000     
  0.500000000000000     
  0.500000000000000     
  0.500000000000000     
  0.500000000000000     
  0.500000000000000     
  0.500000000000000     
  0.500000000000000     
  0.500000000000000     
  0.500000000000000     
  0.500000000000000     
  0.500000000000000     
  0.500000000000000     
  0.500000000000000     
  0.500000000000000     
  0.500000000000000     
  0.500000000000000     
  0.500000000000000     
  0.500000000000000     
  0.500000000000000     
  0.500000000000000     
  0.500000000000000     
  0.500000000000000     
  0.500000000000000     
  0.500000000000000     
  0.500000000000000     
  0.500000000000000     
  0.500000000000000     
  0.500000000000000     
  0.500000000000000     
  0.500000000000000     
  0.500000000000000     
  0.500000000000000     
  0.500000000000000     
  0.500000000000000     
  0.500000000000000     
  0.500000000000000     
  0.500000000000000     
  0.500000000000000     
  0.500000000000000     
  0.500000000000000     
  0.500000000000000     
  0.500000000000000     
  0.500000000000000     
  0.500000000000000     
  0.500000000000000     
  0.500000000000000     
  0.500000000000000     
  0.500000000000000     
  0.500000000000000     
  0.500000000000000     
  0.500000000000000     
  0.500000000000000     
  0.500000000000000     
  0.500000000000000     
  0.500000000000000     
  0.500000000000000     
  0.500000000000000     
  0.500000000000000     
  0.500000000000000     
  0.500000000000000     
  0.500000000000000     
  0.500000000000000     
  0.500000000000000     
  0.500000000000000     
  0.500000000000000     
  0.500000000000000     
  0.500000000000000     
  0.500000000000000     
  0.500000000000000     
  0.500000000000000     
  0.500000000000000     
  0.500000000000000     
  0.500000000000000     
  0.500000000000000     
  0.500000000000000     
  0.500000000000000     
  0.500000000000000     
  0.500000000000000     
  0.500000000000000     
  0.500000000000000     
  0.500000000000000     
  0.500000000000000     
  0.500000000000000     
  0.500000000000000     
  0.500000000000000     
  0.500000000000000     
  0.500000000000000     
  0.500000000000000     
  0.500000000000000     
  0.500000000000000     
  0.500000000000000     
  0.500000000000000     
  0.500000000000000     
  0.500000000000000     
  0.500000000000000     
  0.500000000000000     
  0.500000000000000     
  0.500000000000000     
  0.500000000000000     
  0.500000000000000     
  0.500000000000000     
  0.500000000000000     
  0.500000000000000     
  0.500000000000000     
  0.500000000000000     
  0.500000000000000     
  0.500000000000000     
  0.500000000000000     
  0.500000000000000     
  0.500000000000000     
  0.500000000000000     
  0.500000000000000     
  0.500000000000000     
  0.500000000000000     
  0.500000000000000     
  0.500000000000000     
  0.500000000000000     
  0.500000000000000     
  0.500000000000000     
  0.500000000000000     
  0.500000000000000     
  0.500000000000000     
  0.500000000000000     
  0.500000000000000     
  0.500000000000000     
  0.500000000000000     
  0.500000000000000     
  0.500000000000000     
  0.500000000000000     
  0.500000000000000     
  0.500000000000000     
  0.500000000000000     
  0.500000000000000     
  0.500000000000000     
  0.500000000000000     
  0.500000000000000     
  0.500000000000000     
  0.500000000000000     
  0.500000000000000     
  0.500000000000000     
  0.500000000000000     
  0.500000000000000     
  0.500000000000000     
  0.500000000000000     
  0.500000000000000     
  0.500000000000000     
  0.500000000000000     
  0.500000000000000     
  0.500000000000000     
  0.500000000000000     
  0.500000000000000     
  0.500000000000000     
  0.500000000000000     
  0.500000000000000     
  0.500000000000000     
  0.500000000000000     
  0.500000000000000     
  0.500000000000000     
  0.500000000000000     
  0.500000000000000     
  0.500000000000000     
  0.500000000000000     
  0.500000000000000     
  0.500000000000000     
  0.500000000000000     
  0.500000000000000     
  0.500000000000000     
  0.500000000000000     
  0.500000000000000     
  0.500000000000000     
  0.500000000000000     
  0.500000000000000     
  0.500000000000000     
  0.500000000000000     
  0.500000000000000     
  0.500000000000000     
  0.500000000000000     
  0.500000000000000     
  0.500000000000000     
  0.500000000000000     
  0.500000000000000     
  0.500000000000000     
  0.500000000000000     
  0.500000000000000     
  0.500000000000000     
  0.500000000000000     
  0.500000000000000     
  0.500000000000000     
  0.500000000000000     
  0.500000000000000     
  0.500000000000000     
  0.500000000000000     
  0.500000000000000     
  0.500000000000000     
  0.500000000000000     
  0.500000000000000     
  0.500000000000000     
  0.500000000000000     
  0.500000000000000     
  0.500000000000000     
  0.500000000000000     
  0.500000000000000     
  0.500000000000000     
  0.500000000000000     
  0.500000000000000     
  0.500000000000000     
  0.500000000000000     
  0.500000000000000     
  0.500000000000000     
  0.500000000000000     
  0.500000000000000     
  0.500000000000000     
  0.500000000000000     
  0.500000000000000     
  0.500000000000000     
  0.500000000000000     
  0.500000000000000     
  0.500000000000000     
  0.500000000000000     
  0.500000000000000     
  0.500000000000000     
  0.500000000000000     
  0.500000000000000     
  0.500000000000000     
  0.500000000000000     
  0.500000000000000     
  0.500000000000000     
  0.500000000000000     
  0.500000000000000     
  0.500000000000000     
  0.500000000000000     
  0.500000000000000     
  0.500000000000000     