# vtk DataFile Version 5.1
Data.vtk
ASCII
DATASET UNSTRUCTURED_GRID
 
POINTS 2000 float
   -7.13  -11.63    0.62
    2.09  -13.51   -0.49
   -9.19  -11.21    5.76
   -7.22  -11.50   -1.65
   -9.74   -7.25    7.17
   -7.84  -11.23   -8.74
   -2.77  -10.99   -8.50
   -8.92   -9.73   -8.67
   -2.45  -11.42   -3.83
   -0.80  -13.58    0.90
   -9.20   -9.51   -0.95
   -8.22  -11.94   -8.13
   -4.42  -12.65    0.30
   -7.92  -11.16    3.00
   -4.96  -12.01   -0.92
   -1.06  -12.27    2.05
   -1.83  -11.62    5.47
   -6.79  -12.04    7.60
    4.47  -13.79    8.02
   -6.69  -11.88   -3.75
   -7.41  -12.46   -1.44
    2.10  -14.35    6.88
   -7.82   -8.38   -8.79
   -0.54  -14.49   -7.31
   -2.06  -13.57    1.69
   -8.91   -7.93   -0.07
   -6.32  -13.05    9.50
   -6.50  -10.54    7.44
  -11.56   -5.64    1.49
  -12.46   -7.42    4.12
   -7.26  -12.55   -3.23
   -3.33  -10.88   -0.90
   -4.82   -9.92    4.76
   -5.04  -12.81   -3.15
  -11.87   -8.32   -3.71
   -3.33  -13.36    8.01
   -7.64  -10.60    7.27
   -8.34   -9.79    5.99
   -6.11   -9.50    0.79
   -7.42  -11.81    3.68
    2.41  -12.20    5.04
  -11.02   -9.43   -0.22
  -10.39   -6.84   -6.12
   -7.38  -12.48    2.09
  -14.05   -3.54   -6.94
   -6.12   -8.52    8.03
   -2.02  -11.93    4.54
   -4.61  -11.91   -5.52
    2.57  -12.48    6.79
   -4.55  -11.64   -9.50
   -2.62  -13.38   -8.38
  -12.78   -4.67    9.50
   -4.87  -10.32    6.61
   -0.64  -13.49    2.76
   -5.92   -9.54    4.83
   -0.98  -12.03   -1.53
   -5.94   -9.93   -4.40
   -8.99   -8.29    3.43
  -13.08   -6.25   -0.54
  -11.69   -6.57   -2.70
  -10.58   -7.56   -0.67
   -8.84   -7.28    1.09
   -4.09  -10.86    6.92
    0.17  -14.50    4.38
   -0.70  -14.48    2.71
   -2.94  -12.59    0.43
   -8.97  -11.39    0.00
   -0.99  -13.73    4.16
   -4.83  -13.47    0.70
   -4.72  -12.69   -6.14
  -14.21   -2.86    7.16
   -2.30  -14.32   -7.46
   -7.58  -11.43   -3.63
   -2.29  -10.98    4.35
    0.81  -12.10    4.74
  -10.10  -10.41   -6.05
   -1.22  -10.88    5.04
   -6.71   -8.16   -8.53
   -1.94  -12.86    3.56
   -1.35  -11.22   -4.42
    0.09  -11.40    7.25
   -1.26  -11.92    6.33
   -3.63  -13.23    0.09
   -4.98   -9.82   -8.35
   -2.43  -14.29   -8.73
   -3.18  -12.63   -7.08
  -11.65   -8.61   -0.07
   -5.18   -9.51   -4.89
   -7.03   -9.46    1.18
    1.72  -12.30    7.76
   -8.27  -11.91    0.49
   -4.53  -11.03   -7.44
  -11.47   -7.27   -2.01
  -10.82   -8.22    5.81
    0.16  -14.50    5.80
   -6.01   -9.84   -0.20
   -5.16  -10.86    3.50
   -9.04   -8.94    4.39
    0.57  -14.49   -0.40
  -11.91   -5.88   -1.96
  -10.82   -9.66    4.27
    2.09  -13.63   -4.39
   -4.90   -9.95    3.13
   -2.44  -10.82    5.49
   -8.34   -8.75    2.48
   -4.91  -10.45   -6.72
  -10.88   -8.28    8.40
   -4.77  -11.86   -3.47
  -10.04  -10.46    7.06
   -2.92  -12.80    3.77
  -11.88   -5.63    6.87
   -2.68  -12.48   -1.71
    3.38  -14.10   -3.92
   -3.47  -10.54   -6.40
    1.12  -14.46    4.09
   -1.48  -12.17   -7.00
  -11.43   -8.90   -1.88
   -9.63   -8.53   -2.94
    1.21  -14.45    7.31
  -11.21   -9.20    9.50
    1.46  -12.05    6.65
  -12.77   -6.85    7.57
   -1.25  -12.69    7.02
   -4.14  -10.55    2.32
  -12.28   -6.10    0.71
   -7.42   -8.21   -4.62
    0.46  -12.77   -7.27
   -7.63  -12.33    1.14
    2.54  -13.60   -9.06
   -0.63  -11.64   -6.94
   -5.98  -12.44   -4.18
   -2.06  -12.31    2.71
   -5.45  -10.23    0.94
   -2.99  -10.50    1.06
  -13.28   -5.67   -9.17
   -9.98   -7.82    8.31
   -6.31  -13.06   -6.80
   -4.83  -13.67   -5.37
   -8.24   -8.41    9.50
   -2.29  -14.32    6.01
   -3.44  -13.16   -3.69
   -7.91  -12.15    2.88
   -6.27  -11.70   -2.57
  -11.33   -7.68    6.47
   -9.00   -9.02    6.19
   -7.10  -11.80    8.52
   -7.33  -11.25    6.27
   -8.28   -8.66   -4.11
   -5.30  -12.86   -7.84
   -6.15  -11.18   -8.81
    0.03  -13.76    6.47
  -10.88   -7.22    1.15
   -6.31  -10.20    4.19
   -2.85  -11.54   -1.99
   -8.00   -9.91   -5.05
  -11.73   -8.53    2.94
   -9.94   -9.48    4.72
   -7.92   -8.00    5.33
  -12.00   -8.12    8.55
    2.23  -12.91    3.64
   -4.86  -11.31   -4.65
   -5.55   -8.72    6.84
   -1.82  -12.73   -8.60
    0.86  -13.89    1.05
   -7.15   -7.91   -9.42
    0.54  -12.83    1.71
   -7.86  -11.41   -0.27
   -0.04  -13.79   -8.67
   -2.53  -11.90   -0.19
   -9.66   -7.76   -6.33
    1.14  -14.46   -1.22
  -12.53   -5.57   -8.51
   -3.21  -10.39    9.18
   -9.94   -7.33   -5.37
   -7.01   -9.26    3.31
   -0.91  -12.31   -0.57
   -6.55  -10.34    8.79
  -12.86   -4.67    7.62
   -4.24  -10.68   -1.29
   -5.02  -12.17    2.49
   -6.37  -13.03   -5.79
   -1.04  -11.94    1.11
    1.64  -13.62   -1.50
   -5.37  -10.95   -9.50
   -1.70  -12.59    9.50
    1.89  -14.37   -5.03
   -8.43   -9.57    0.07
   -7.40  -12.47   -6.73
  -11.56   -8.75    7.85
   -9.56  -10.89   -1.85
   -3.63  -13.08   -1.78
   -9.17  -10.35    7.94
    2.82  -13.60    9.43
   -6.11  -12.93   -9.50
   -5.76  -10.67   -5.05
   -2.06  -12.79    7.64
  -10.63   -7.97   -7.74
   -6.24  -12.24   -7.38
   -9.38   -9.96   -0.08
    2.92  -14.20   -2.97
   -2.40  -11.44    6.28
   -4.69   -9.49    7.12
    0.42  -14.49   -4.02
   -2.93  -12.62   -0.75
  -10.47  -10.03    2.61
  -11.36   -7.46   -3.01
   -1.56  -11.21   -5.46
   -6.01  -11.17    8.63
   -0.18  -12.35   -5.52
   -1.45  -12.14   -9.38
   -8.96   -7.05    7.95
   -8.37   -9.63   -9.50
    0.29  -11.39    5.22
   -8.73  -10.27   -2.10
  -11.28   -6.28   -5.17
    2.41  -12.81    1.69
   -0.07  -11.70    1.13
   -7.93  -10.10    4.77
  -13.60   -5.04   -6.10
  -11.79   -8.43   -1.04
   -5.71   -9.41    6.13
    1.78  -13.77    7.77
  -11.86   -7.06   -7.25
   -5.82  -10.24   -1.14
    1.42  -13.81    8.73
   -7.76   -7.53    9.48
  -13.74   -4.64   -4.72
    1.62  -14.39   -3.26
  -10.53   -7.42    9.05
   -6.06   -8.68   -9.50
  -10.06  -10.44   -5.05
   -3.56  -12.12    5.23
   -6.38  -12.18   -6.33
   -6.53   -8.83    6.08
   -8.82  -10.77   -7.13
  -12.02   -8.10   -1.96
  -11.91   -6.49    2.61
    0.40  -12.32    0.50
   -6.19  -12.31    4.70
   -9.15   -9.27   -7.64
   -3.12  -11.98    4.30
   -9.79   -6.27    7.36
   -7.17  -10.88   -9.39
    0.34  -12.28   -9.50
   -2.56  -11.92    3.48
   -9.20   -9.15    2.18
   -3.55  -10.38   -8.33
    0.67  -13.76   -2.01
  -13.64   -4.90    8.85
   -4.88  -10.93    8.84
   -4.80  -11.49    1.25
  -10.08  -10.43   -9.50
   -8.39   -8.99   -8.23
   -4.72  -13.71    7.14
    4.79  -13.69    5.90
   -2.99  -12.87    5.78
   -9.48   -9.41   -9.43
   -2.34  -14.31    4.48
   -6.23  -11.50   -5.58
   -4.50  -12.61   -1.69
    3.54  -14.06   -6.85
  -11.00   -6.86   -7.85
  -13.32   -5.72    2.92
  -10.01   -7.74    5.26
  -11.90   -8.29   -5.85
   -3.23  -14.14   -6.08
   -0.54  -14.49    5.08
  -10.39   -6.41    1.50
   -5.30  -11.69   -8.84
   -9.75   -7.69   -8.78
   -3.94  -13.00   -0.83
   -5.94  -10.64    2.70
    1.73  -14.40   -7.85
    2.10  -12.79   -8.41
   -7.35   -8.01   -6.60
   -4.24  -12.04    7.88
   -0.16  -13.71    3.60
   -0.58  -11.50    7.98
   -2.24  -12.77   -6.72
  -10.92   -7.99    0.21
   -9.98   -8.71    6.12
    2.27  -14.32    8.60
   -3.34  -13.16   -6.25
   -7.24   -8.39    9.50
  -11.59   -7.23    1.92
   -3.86  -10.66    0.49
   -4.12  -11.73    0.53
    1.05  -13.13    7.98
   -2.36  -12.51   -4.02
   -0.84  -11.71    5.44
   -8.76  -10.42    5.34
  -13.96   -3.78    7.47
   -6.01  -10.86   -1.93
   -1.84  -12.72   -4.84
    0.49  -12.20    6.81
   -5.84  -12.62   -0.51
   -4.17  -13.89   -7.96
   -0.39  -12.40    7.43
   -5.47  -13.43    6.54
   -6.27  -13.07   -7.93
   -5.66  -11.79    1.83
   -2.27  -14.32    7.46
   -1.16  -12.66    2.97
   -2.33  -11.68   -1.14
    4.66  -13.73    1.80
   -4.22  -11.68    8.81
   -0.17  -12.23    4.92
   -2.27  -14.32   -6.46
   -5.65  -11.73   -1.59
  -12.77   -5.48    8.91
   -3.99  -11.87   -7.43
    0.54  -13.10    4.94
   -0.18  -12.83   -0.14
  -13.69   -4.77    0.02
   -6.28   -9.66   -7.62
   -0.85  -12.12   -3.73
   -3.80  -11.08   -9.13
    1.94  -13.46   -3.41
  -12.56   -7.24    2.71
   -9.98   -7.21   -7.74
   -6.44  -10.49   -8.15
   -4.02  -10.66   -3.96
   -5.17  -12.43    1.24
   -5.23  -12.22   -4.80
   -9.47   -6.77   -4.13
    3.85  -13.98   -1.51
   -3.76  -12.34    3.50
    1.17  -12.17    5.67
   -8.56   -9.68   -6.94
  -10.36   -8.80    4.02
   -4.18  -10.85   -2.28
   -8.06  -10.90    0.56
  -10.34  -10.16   -0.26
   -3.64  -12.12   -1.48
    0.49  -13.46    8.74
   -9.87   -9.32    0.52
  -10.81   -5.47    6.26
   -9.73  -10.75    4.11
   -9.92   -8.40    0.12
    0.34  -13.54   -0.62
   -3.23  -12.04   -3.85
    3.18  -13.31   -7.41
    2.08  -13.81    6.03
   -6.93   -9.87    4.90
   -2.97  -11.49   -7.66
   -5.92  -10.40   -7.05
   -6.47   -8.35    6.97
   -7.23   -9.14    0.25
   -4.69  -12.65   -4.07
   -8.53  -11.72    7.43
  -11.76   -8.48   -4.88
   -6.27  -10.46   -9.50
  -10.82   -8.53   -0.62
  -11.48   -7.24    4.02
   -5.38  -10.89   -5.95
   -2.93  -10.99    3.58
   -0.41  -12.19   -2.82
   -0.42  -13.76    9.04
  -10.28   -6.38    5.01
  -13.30   -5.77   -7.04
   -4.78   -9.56    9.50
   -2.01  -13.57    9.50
   -0.93  -12.84   -4.42
   -5.41  -13.45    9.50
    4.61  -13.75    9.48
   -7.36   -8.60    2.65
  -12.65   -7.09    9.32
   -0.94  -13.69   -7.75
   -7.30   -9.12   -5.01
   -8.05   -7.64    7.92
   -3.69  -13.53   -7.11
  -12.34   -5.74   -9.50
   -0.99  -13.67   -3.87
   -5.48  -12.46    9.50
   -9.58   -7.99   -1.54
  -11.45   -8.89    4.36
    0.85  -12.80    4.03
   -5.17  -10.07   -3.36
   -3.43  -12.48   -4.73
   -9.50  -10.15   -7.96
    0.61  -13.15   -9.08
   -5.13  -10.27   -0.42
   -0.82  -12.81   -2.14
    1.24  -13.77    6.58
   -8.62   -8.71   -2.60
   -9.52   -7.04   -9.50
   -1.80  -12.54   -1.14
   -1.11  -14.46    0.22
   -3.83  -11.42   -3.34
   -6.10   -8.74   -7.99
   -1.02  -14.46    8.66
    1.30  -14.44    5.79
   -3.08  -11.42   -4.61
    5.08  -13.58    4.83
   -6.59   -9.72    6.55
    1.41  -13.53    3.62
[...]
POINT_DATA 2000
SCALARS radius float
LOOKUP_TABLE default
  0.500000000000000     
  0.500000000000000     
  0.500000000000000     
  0.500000000000000     
  0.500000000000000     
  0.500000000000000     
  0.500000000000000     
  0.500000000000000     
  0.500000000000000     
  0.500000000000000     
  0.500000000000000     
  0.500000000000000     
  0.500000000000000     
  0.500000000000000     
  0.500000000000000     
  0.500000000000000     
  0.500000000000000     
  0.500000000000000     
  0.500000000000000     
  0.500000000000000     
  0.500000000000000     
  0.500000000000000     
  0.500000000000000     
  0.500000000000000     
  0.500000000000000     
  0.500000000000000     
  0.500000000000000     
  0.500000000000000     
  0.500000000000000     
  0.500000000000000     
  0.500000000000000     
  0.500000000000000     
  0.500000000000000     
  0.500000000000000     
  0.500000000000000     
  0.500000000000000     
  0.500000000000000     
  0.500000000000000     
  0.500000000000000     
  0.500000000000000     
  0.500000000000000     
  0.500000000000000     
  0.500000000000000     
  0.500000000000000     
  0.500000000000000     
  0.500000000000000     
  0.500000000000000     
  0.500000000000000     
  0.500000000000000     
  0.500000000000000     
  0.500000000000000     
  0.500000000000000     
  0.500000000000000     
  0.500000000000000     
  0.500000000000000     
  0.500000000000000     
  0.500000000000000     
  0.500000000000000     
  0.500000000000000     
  0.500000000000000     
  0.500000000000000     
  0.500000000000000     
  0.500000000000000     
  0.500000000000000     
  0.500000000000000     
  0.500000000000000     
  0.500000000000000     
  0.500000000000000     
  0.500000000000000     
  0.500000000000000     
  0.500000000000000     
  0.500000000000000     
  0.500000000000000     
  0.500000000000000     
  0.500000000000000     
  0.500000000000000     
  0.500000000000000     
  0.500000000000000     
  0.500000000000000     
  0.500000000000000     
  0.500000000000000     
  0.500000000000000     
  0.500000000000000     
  0.500000000000000     
  0.500000000000000     
  0.500000000000000     
  0.500000000000000     
  0.500000000000000     
  0.500000000000000     
  0.500000000000000     
  0.500000000000000     
  0.500000000000000     
  0.500000000000000     
  0.500000000000000     
  0.500000000000000     
  0.500000000000000     
  0.500000000000000     
  0.500000000000000     
  0.500000000000000     
  0.500000000000000     
  0.500000000000000     
  0.500000000000000     
  0.500000000000000     
  0.500000000000000     
  0.500000000000000     
  0.500000000000000     
  0.500000000000000     
  0.500000000000000     
  0.500000000000000     
  0.500000000000000     
  0.500000000000000     
  0.500000000000000     
  0.500000000000000     
  0.500000000000000     
  0.500000000000000     
  0.500000000000000     
  0.500000000000000     
  0.500000000000000     
  0.500000000000000     
  0.500000000000000     
  0.500000000000000     
  0.500000000000000     
  0.500000000000000     
  0.500000000000000     
  0.500000000000000     
  0.500000000000000     
  0.500000000000000     
  0.500000000000000     
  0.500000000000000     
  0.500000000000000     
  0.500000000000000     
  0.500000000000000     
  0.500000000000000     
  0.500000000000000     
  0.500000000000000     
  0.500000000000000     
  0.500000000000000     
  0.500000000000000     
  0.500000000000000     
  0.500000000000000     
  0.500000000000000     
  0.500000000000000     
  0.500000000000000     
  0.500000000000000     
  0.500000000000000     
  0.500000000000000     
  0.500000000000000     
  0.500000000000000     
  0.500000000000000     
  0.500000000000000     
  0.500000000000000     
  0.500000000000000     
  0.500000000000000     
  0.500000000000000     
  0.500000000000000     
  0.500000000000000     
  0.500000000000000     
  0.500000000000000     
  0.500000000000000     
  0.500000000000000     
  0.500000000000000     
  0.500000000000000     
  0.500000000000000     
  0.500000000000000     
  0.500000000000000     
  0.500000000000000     
  0.500000000000000     
  0.500000000000000     
  0.500000000000000     
  0.500000000000000     
  0.500000000000000     
  0.500000000000000     
  0.500000000000000     
  0.500000000000000     
  0.500000000000000     
  0.500000000000000     
  0.500000000000000     
  0.500000000000000     
  0.500000000000000     
  0.500000000000000     
  0.500000000000000     
  0.500000000000000     
  0.500000000000000     
  0.500000000000000     
  0.500000000000000     
  0.500000000000000     
  0.500000000000000     
  0.500000000000000     
  0.500000000000000     
  0.500000000000000     
  0.500000000000000     
  0.500000000000000     
  0.500000000000000     
  0.500000000000000     
  0.500000000000000     
  0.500000000000000     
  0.500000000000000     
  0.500000000000000     
  0.500000000000000     
  0.500000000000000     
  0.500000000000000     
  0.500000000000000     
  0.500000000000000     
  0.500000000000000     
  0.500000000000000     
  0.500000000000000     
  0.500000000000000     
  0.500000000000000     
  0.500000000000000     
  0.500000000000000     
  0.500000000000000     
  0.500000000000000     
  0.500000000000000     
  0.500000000000000     
  0.500000000000000     
  0.500000000000000     
  0.500000000000000     
  0.500000000000000     
  0.500000000000000     
  0.500000000000000     
  0.500000000000000     
  0.500000000000000     
  0.500000000000000     
  0.500000000000000     
  0.500000000000000     
  0.500000000000000     
  0.500000000000000     
  0.500000000000000     
  0.500000000000000     
  0.500000000000000     
  0.500000000000000     
  0.500000000000000     
  0.500000000000000     
  0.500000000000000     
  0.500000000000000     
  0.500000000000000     
  0.500000000000000     
  0.500000000000000     
  0.500000000000000     
  0.500000000000000     
  0.500000000000000     
  0.500000000000000     
  0.500000000000000     
  0.500000000000000     
  0.500000000000000     
  0.500000000000000     
  0.500000000000000     
  0.500000000000000     
  0.500000000000000     
  0.500000000000000     
  0.500000000000000     
  0.500000000000000     
  0.500000000000000     
  0.500000000000000     
  0.500000000000000     
  0.500000000000000     
  0.500000000000000     
  0.500000000000000     
  0.500000000000000     
  0.500000000000000     
  0.500000000000000     
  0.500000000000000     
  0.500000000000000     
  0.500000000000000     
  0.500000000000000     
  0.500000000000000     
  0.500000000000000     
  0.500000000000000     
  0.500000000000000     
  0.500000000000000     
  0.500000000000000     
  0.500000000000000     
  0.500000000000000     
  0.500000000000000     
  0.500000000000000     
  0.500000000000000     
  0.500000000000000     
  0.500000000000000     
  0.500000000000000     
  0.500000000000000     
  0.500000000000000     
  0.500000000000000     
  0.500000000000000     
  0.500000000000000     
  0.500000000000000     
  0.500000000000000     
  0.500000000000000     
  0.500000000000000     
  0.500000000000000     
  0.500000000000000     
  0.500000000000000     
  0.500000000000000     
  0.500000000000000     
  0.500000000000000     
  0.500000000000000     
  0.500000000000000     
  0.500000000000000     
  0.500000000000000     
  0.500000000000000     
  0.500000000000000     
  0.500000000000000     
  0.500000000000000     
  0.500000000000000     
  0.500000000000000     
  0.500000000000000     
  0.500000000000000     
  0.500000000000000     
  0.500000000000000     
  0.500000000000000     
  0.500000000000000     
  0.500000000000000     
  0.500000000000000     
  0.500000000000000     
  0.500000000000000     
  0.500000000000000     
  0.500000000000000     
  0.500000000000000     
  0.500000000000000     
  0.500000000000000     
  0.500000000000000     
  0.500000000000000     
  0.500000000000000     
  0.500000000000000     
  0.500000000000000     
  0.500000000000000     
  0.500000000000000     
  0.500000000000000     
  0.500000000000000     
  0.500000000000000     
  0.500000000000000     
  0.500000000000000     
  0.500000000000000     
  0.500000000000000     
  0.500000000000000     
  0.500000000000000     
  0.500000000000000     
  0.500000000000000     
  0.500000000000000     
  0.500000000000000     
  0.500000000000000     
  0.500000000000000     
  0.500000000000000     
  0.500000000000000     
  0.500000000000000     
  0.500000000000000     
  0.500000000000000     
  0.500000000000000     
  0.500000000000000     
  0.500000000000000     
  0.500000000000000     
  0.500000000000000     
  0.500000000000000     
  0.500000000000000     
  0.500000000000000     
  0.500000000000000     
  0.500000000000000     
  0.500000000000000     
  0.500000000000000     
  0.500000000000000     
  0.500000000000000     
  0.500000000000000     
  0.500000000000000     
  0.500000000000000     
  0.500000000000000     
  0.500000000000000     
  0.500000000000000     
  0.500000000000000     
  0.500000000000000     
  0.500000000000000     
  0.500000000000000     
  0.500000000000000     
  0.500000000000000     
  0.500000000000000     
  0.500000000000000     
  0.500000000000000     
  0.500000000000000     
  0.500000000000000     
  0.500000000000000     
  0.500000000000000     
  0.500000000000000     
  0.500000000000000     
  0.500000000000000     
  0.500000000000000     
  0.500000000000000     
  0.500000000000000     
  0.500000000000000     
  0.500000000000000     
  0.500000000000000     
  0.500000000000000     
  0.500000000000000     
  0.500000000000000     
  0.500000000000000     
  0.500000000000000     
  0.500000000000000     
  0.500000000000000     
  0.500000000000000     
  0.500000000000000     
  0.500000000000000     
  0.500000000000000     
  0.500000000000000     
  0.500000000000000     
  0.500000000000000     
  0.500000000000000     
  0.500000000000000     
  0.500000000000000     
  0.500000000000000     
  0.500000000000000     
  0.500000000000000     
  0.500000000000000     
  0.500000000000000     
  0.500000000000000     
  0.500000000000000     
  0.500000000000000     
  0.500000000000000     
  0.500000000000000     
  0.500000000000000     
  0.500000000000000     
  0.500000000000000     
  0.500000000000000     
  0.500000000000000     
  0.500000000000000     
  0.500000000000000     
  0.500000000000000     
  0.500000000000000     
  0.500000000000000     
  0.500000000000000     
  0.500000000000000     
  0.500000000000000     
  0.500000000000000     
  0.500000000000000     
  0.500000000000000     
  0.500000000000000     
  0.500000000000000     
  0.500000000000000     
  0.500000000000000     
  0.500000000000000     
  0.500000000000000     
  0.500000000000000     
  0.500000000000000     
  0.500000000000000     
  0.500000000000000     
  0.500000000000000     
  0.500000000000000     
  0.500000000000000     
  0.500000000000000     
  0.500000000000000     
  0.500000000000000     
  0.500000000000000     
  0.500000000000000     
  0.500000000000000     
  0.500000000000000     
  0.500000000000000     
  0.500000000000000     
  0.500000000000000     
  0.500000000000000     
  0.500000000000000     
  0.500000000000000     
  0.500000000000000     
  0.500000000000000     
  0.500000000000000     
  0.500000000000000     
  0.500000000000000     
  0.500000000000000     
  0.500000000000000     
  0.500000000000000     
  0.500000000000000     
  0.500000000000000     
  0.500000000000000     
  0.500000000000000     
  0.500000000000000     
  0.500000000000000     
  0.500000000000000     
  0.500000000000000     
  0.500000000000000     
  0.500000000000000     
  0.500000000000000     
  0.500000000000000     
  0.500000000000000     
  0.500000000000000     
  0.500000000000000     
  0.500000000000000     
  0.500000000000000     
  0.500000000000000     
  0.500000000000000     
  0.500000000000000     
  0.500000000000000     
  0.500000000000000     
  0.500000000000000     
  0.500000000000000     
  0.500000000000000     
  0.500000000000000     
  0.500000000000000     
  0.500000000000000     
  0.500000000000000     
  0.500000000000000     
  0.500000000000000     
  0.500000000000000     
  0.500000000000000     
  0.500000000000000     
  0.500000000000000     
  0.500000000000000     
  0.500000000000000     
  0.500000000000000     
  0.500000000000000     
  0.500000000000000     
  0.500000000000000     
  0.500000000000000     
  0.500000000000000     
  0.500000000000000     
  0.500000000000000     
  0.500000000000000     
  0.500000000000000     
  0.500000000000000     
  0.500000000000000     
  0.500000000000000     
  0.500000000000000     
  0.500000000000000     
  0.500000000000000     
  0.500000000000000     
  0.500000000000000     
  0.500000000000000     
  0.500000000000000     
  0.500000000000000     
  0.500000000000000     
  0.500000000000000     
  0.500000000000000     
  0.500000000000000     
  0.500000000000000     
  0.500000000000000     
  0.500000000000000     
  0.500000000000000     
  0.500000000000000     
  0.500000000000000     
  0.500000000000000     
  0.500000000000000     
  0.500000000000000     
  0.500000000000000     
  0.500000000000000     
  0.500000000000000     
  0.500000000000000     
  0.500000000000000     
  0.500000000000000     
  0.500000000000000     
  0.500000000000000     
  0.500000000000000     
  0.500000000000000     
  0.500000000000000     
  0.500000000000000     
  0.500000000000000     
  0.500000000000000     
  0.500000000000000     
  0.500000000000000     
  0.500000000000000     
  0.500000000000000     
  0.500000000000000     
  0.500000000000000     
  0.500000000000000     
  0.500000000000000     
  0.500000000000000     
  0.500000000000000     
  0.500000000000000     
  0.500000000000000     
  0.500000000000000     
  0.500000000000000     
  0.500000000000000     
  0.500000000000000     
  0.500000000000000     
  0.500000000000000     
  0.500000000000000     
  0.500000000000000     
  0.500000000000000     
  0.500000000000000     
  0.500000000000000     
  0.500000000000000     
  0.500000000000000     
  0.500000000000000     
  0.500000000000000     
  0.500000000000000     
  0.500000000000000     
  0.500000000000000     
  0.500000000000000     
  0.500000000000000     
  0.500000000000000     
  0.500000000000000     
  0.500000000000000     
  0.500000000000000     
  0.500000000000000     
  0.500000000000000     
  0.500000000000000     
  0.500000000000000     
  0.500000000000000     
  0.500000000000000     
  0.500000000000000     
  0.500000000000000     
  0.500000000000000     
  0.500000000000000     
  0.500000000000000     
  0.500000000000000     
  0.500000000000000     
  0.500000000000000     
  0.500000000000000     
  0.500000000000000     
  0.500000000000000     
  0.500000000000000     
  0.500000000000000     
  0.500000000000000     
  0.500000000000000     
  0.500000000000000     
  0.500000000000000     
  0.500000000000000     
  0.500000000000000     
  0.500000000000000     
  0.500000000000000     
  0.500000000000000     
  0.500000000000000     
  0.500000000000000     
  0.500000000000000     
  0.500000000000000     
  0.500000000000000     
  0.500000000000000     
  0.500000000000000     
  0.500000000000000     
  0.500000000000000     
  0.500000000000000     
  0.500000000000000     
  0.500000000000000     
  0.500000000000000     
  0.500000000000000     
  0.500000000000000     
  0.500000000000000     
  0.500000000000000     
  0.500000000000000     
  0.500000000000000     
  0.500000000000000     
  0.500000000000000     
  0.500000000000000     
  0.500000000000000     
  0.500000000000000     
  0.500000000000000     
  0.500000000000000     
  0.500000000000000     
  0.500000000000000     
  0.500000000000000     
  0.500000000000000     
  0.500000000000000     
  0.500000000000000     
  0.500000000000000     
  0.500000000000000     
  0.500000000000000     
  0.500000000000000     
  0.500000000000000     
  0.500000000000000     
  0.500000000000000     
  0.500000000000000     
  0.500000000000000     
  0.500000000000000     
  0.500000000000000     
  0.500000000000000     
  0.500000000000000     
  0.500000000000000     
  0.500000000000000     
  0.500000000000000     
  0.500000000000000     
  0.500000000000000     
  0.500000000000000     
  0.500000000000000     
  0.500000000000000     
  0.500000000000000     
  0.500000000000000     
  0.500000000000000     
  0.500000000000000     
  0.500000000000000     
  0.500000000000000     
  0.500000000000000     
  0.500000000000000     
  0.500000000000000     
  0.500000000000000     
  0.500000000000000     
  0.500000000000000     
  0.500000000000000     
  0.500000000000000     
  0.500000000000000     
  0.500000000000000     
  0.500000000000000     
  0.500000000000000     
  0.500000000000000     
  0.500000000000000     
  0.500000000000000     
  0.500000000000000     
  0.500000000000000     
  0.500000000000000     
  0.500000000000000     
  0.500000000000000     
  0.500000000000000     
  0.500000000000000     
  0.500000000000000     
  0.500000000000000     
  0.500000000000000     
  0.500000000000000     
  0.500000000000000     
  0.500000000000000     
  0.500000000000000     
  0.500000000000000     
  0.500000000000000     
  0.500000000000000     
  0.500000000000000     
  0.500000000000000     
  0.500000000000000     
  0.500000000000000     
  0.500000000000000     
  0.500000000000000     
  0.500000000000000     
  0.500000000000000     
  0.500000000000000     
  0.500000000000000     
  0.500000000000000     
  0.500000000000000     
  0.500000000000000     
  0.500000000000000     
  0.500000000000000     
  0.500000000000000     
  0.500000000000000     
  0.500000000000000     
  0.500000000000000     
  0.500000000000000     
  0.500000000000000     
  0.500000000000000     
  0.500000000000000     
  0.500000000000000     
  0.500000000000000     
  0.500000000000000     
  0.500000000000000     
  0.500000000000000     
  0.500000000000000     
  0.500000000000000     
  0.500000000000000     
  0.500000000000000     
  0.500000000000000     
  0.500000000000000     
  0.500000000000000     
  0.500000000000000     
  0.500000000000000     
  0.500000000000000     
  0.500000000000000     
  0.500000000000000     
  0.500000000000000     
  0.500000000000000     
  0.500000000000000     
  0.500000000000000     
  0.500000000000000     
  0.500000000000000     
  0.500000000000000     
  0.500000000000000     
  0.500000000000000     
  0.500000000000000     
  0.500000000000000     
  0.500000000000000     
  0.500000000000000     
  0.500000000000000     
  0.500000000000000     
  0.500000000000000     
  0.500000000000000     
  0.500000000000000     
  0.500000000000000     
  0.500000000000000     
  0.500000000000000     
  0.500000000000000     
  0.500000000000000     
  0.500000000000000     
  0.500000000000000     
  0.500000000000000     
  0.500000000000000     
  0.500000000000000     
  0.500000000000000     
  0.500000000000000     
  0.500000000000000     
  0.500000000000000     
  0.500000000000000     
  0.500000000000000     
  0.500000000000000     
  0.500000000000000     
  0.500000000000000     
  0.500000000000000     
  0.500000000000000     
  0.500000000000000     
  0.500000000000000     
  0.500000000000000     
  0.500000000000000     
  0.500000000000000     
  0.500000000000000     
  0.500000000000000     
  0.500000000000000     
  0.500000000000000     
  0.500000000000000     
  0.500000000000000     
  0.500000000000000     
  0.500000000000000     