# vtk DataFile Version 5.1
Data.vtk
ASCII
DATASET UNSTRUCTURED_GRID
 
POINTS 2000 float
   -0.62  -11.74   -0.69
  -10.84   -8.94    1.66
    6.26  -13.08    3.02
   -1.85  -12.10   -1.62
   -5.62  -12.18    7.58
   -2.34  -11.37   -9.50
   -8.27   -8.14   -6.53
    0.72  -13.57   -8.54
  -11.32   -7.47   -3.59
   -5.23  -12.64   -0.83
   -3.04  -14.18   -4.69
   -5.74  -11.66   -9.50
    0.88  -11.57   -1.66
   -4.06  -12.16    0.62
    2.03  -14.26   -1.69
  -12.52   -7.18    0.95
   -8.58  -10.53    5.44
    4.02  -12.52    4.62
   -2.39  -10.85    6.03
    5.05  -13.42   -5.52
    2.98  -14.19   -1.39
    0.46  -11.17    4.62
   -8.62   -9.39   -9.46
    2.35  -11.53   -4.62
   -1.38  -12.38   -0.78
  -12.20   -7.81   -8.50
    3.16  -14.15    7.05
   -0.03  -12.24    7.19
   -7.92  -12.12   -1.07
   -3.86  -13.98    9.50
    4.77  -12.29   -4.94
   -9.97  -10.53   -1.71
  -12.35   -6.18    8.00
   -7.84  -10.71   -2.60
    2.05  -13.87   -5.53
    0.40  -11.05    5.97
   -9.94  -10.56    9.50
   -2.18  -13.98    5.98
   -3.77  -14.00    1.03
   -4.05  -12.24    1.62
   -8.43   -8.49    1.25
    5.59  -13.38   -1.26
   -6.68  -12.87   -8.07
   -0.35  -12.90    0.65
   -6.21  -12.15   -8.58
   -7.94   -8.20    2.08
   -5.22   -9.23    3.60
    0.77  -12.26   -4.26
  -10.82   -7.52    3.49
    2.15  -12.08   -5.46
   -3.29  -10.32   -5.12
   -3.17  -11.78    9.38
   -4.85  -12.78    7.80
   -5.97  -12.21    2.08
   -9.13  -11.18    4.86
   -9.15  -10.05    1.09
  -12.92   -6.48   -7.44
   -1.97  -14.36    3.09
    0.26  -14.50    1.73
  -10.15   -8.19   -9.08
   -0.67  -14.48   -2.41
   -5.92  -13.24   -9.49
   -1.50  -11.91    7.05
    1.06  -11.33    2.96
   -3.15  -10.71    0.39
   -4.46  -12.98    0.19
    3.71  -13.22   -4.22
   -7.76  -11.12    3.69
    4.36  -12.30   -2.09
   -8.12   -9.76   -2.45
  -10.64   -9.73    8.26
    3.59  -11.47   -6.36
   -2.51  -10.97   -3.06
  -10.29  -10.21    6.35
  -12.95   -6.53    4.49
    4.18  -13.79   -8.50
  -12.41   -5.81    6.96
   -3.68   -9.53   -4.63
   -5.03  -12.49    2.29
  -12.95   -6.45   -2.46
   -3.60   -9.50    7.54
  -12.39   -7.54    6.38
    1.35  -12.80   -2.37
  -12.30   -5.09   -5.65
    2.10  -12.54   -7.04
   -5.57  -10.80   -4.90
    4.60  -13.75    2.40
   -9.64   -9.41   -6.08
   -5.73  -13.24   -0.15
   -7.73   -9.81    5.64
   -5.38  -11.47   -0.07
    0.04  -11.31   -7.42
   -5.84  -13.27   -3.61
   -6.66  -12.88    9.50
   -3.46  -10.25    2.07
   -9.34  -11.09   -3.50
   -0.97  -14.47    3.02
   -3.68  -13.22    5.87
   -3.29   -9.87   -1.03
   -6.11  -13.15   -1.82
    3.06  -11.92    1.64
   -9.93   -9.41   -3.24
   -8.69  -11.59    1.34
  -12.68   -6.94    7.45
   -2.24  -14.33    2.06
  -12.79   -5.57   -7.83
   -3.80  -10.57    4.13
   -6.75  -12.83   -3.70
    5.20  -12.81    8.36
   -0.14  -13.07    3.75
   -6.30  -12.92    7.56
   -2.79  -13.24   -2.31
   -6.80   -9.31   -2.73
   -4.69   -9.63   -6.50
   -0.88  -11.02    1.88
   -6.75   -9.12   -7.88
    0.30  -14.49    0.68
   -7.56  -12.37   -8.04
    3.79  -11.60    2.96
   -6.81  -11.73    9.33
   -3.58   -9.60    5.58
  -11.86   -8.35    9.50
    0.41  -12.26    8.78
   -9.96  -10.10    4.09
   -6.33  -13.03    0.66
  -13.08   -6.26   -4.28
   -2.71   -9.91   -3.21
    4.51  -13.71    3.44
    0.20  -11.04   -5.56
   -5.35   -9.04   -6.97
   -3.43  -12.50   -3.56
   -8.41  -11.81    3.30
  -10.69   -9.09   -0.55
  -10.11  -10.38    0.61
   -4.95  -11.77   -7.80
    1.62  -12.24    6.61
    4.08  -12.98   -5.12
    4.67  -12.85   -2.87
   -8.99   -8.12    8.69
    1.50  -11.58    1.82
   -8.74  -10.43   -3.04
    4.24  -13.87    4.39
   -4.05  -12.40   -6.68
   -5.75  -13.31    9.47
   -8.35  -11.86    6.28
    3.40  -13.17    9.39
   -2.32  -12.96    5.85
  -12.33   -4.52   -9.36
   -0.57  -11.18   -4.67
    1.69  -12.05   -8.76
   -5.67  -11.47    4.69
   -7.86  -12.18   -2.06
   -7.62  -12.31    5.66
   -9.51  -10.91   -6.07
    4.28  -13.04   -6.10
    1.98  -14.36    1.88
    0.90  -14.47    2.56
  -13.04   -5.97    6.19
   -3.64  -13.32    7.70
   -7.64   -8.45    4.03
   -6.37  -13.03   -7.14
  -12.63   -5.55    5.34
    0.26  -10.50   -6.78
   -5.46   -9.43    0.00
   -7.68  -10.38   -7.92
   -9.29  -11.13    2.00
    2.07  -13.34   -2.81
    2.87  -13.29   -6.98
  -10.40   -7.59   -1.43
   -7.48  -11.33   -7.69
   -2.01  -10.43    0.70
   -8.64  -10.66   -8.23
   -5.41  -10.32    7.78
   -8.86  -11.47   -6.59
   -1.03  -13.69    5.64
  -10.55   -9.95   -1.04
   -2.87  -11.37    8.43
   -7.69  -11.11    9.50
   -8.85  -11.49   -5.21
   -0.96  -13.27   -0.42
    0.21  -14.49   -9.50
  -12.33   -6.72    1.82
   -4.84   -9.35   -0.78
   -8.08  -10.02   -8.76
   -3.81  -11.20    8.13
   -3.39  -10.58   -2.77
   -2.74  -14.24   -6.52
    3.91  -12.15   -5.68
   -2.47  -14.29    6.89
    4.75  -13.18   -1.77
   -3.66  -12.91   -2.68
    1.86  -12.36    4.35
   -2.81  -10.71    7.68
   -3.08  -12.11   -9.50
  -11.47   -7.48   -4.58
   -6.68   -9.46    4.94
  -12.24   -7.75   -9.50
   -0.07  -10.80   -3.66
    4.63  -13.74   -0.56
   -8.87   -9.47   -1.54
   -8.35   -9.73    4.84
   -6.78   -8.22    8.09
   -1.77  -11.14   -4.11
   -1.02  -13.07   -1.40
    2.92  -13.25    2.31
    0.99  -13.57   -9.50
   -8.59   -8.81   -4.97
   -8.39  -11.83    9.50
  -13.61   -5.02   -7.65
   -4.24  -11.83   -8.83
   -7.63  -11.31    6.75
   -1.76  -10.72   -6.77
   -9.66   -9.58    2.97
    2.07  -12.88   -3.71
  -12.74   -6.92   -9.28
  -11.56   -7.04   -0.03
  -11.34   -8.23    1.17
    4.81  -13.04    5.21
   -3.27  -12.46   -7.31
    1.01  -14.46   -5.65
  -12.65   -4.94    7.40
   -6.96  -10.35    5.30
   -4.77  -13.37   -8.56
   -3.06  -13.40   -3.32
   -2.46  -10.26    9.50
   -3.99   -9.29    8.44
   -2.25  -14.32   -9.45
   -3.45   -9.67   -2.35
   -5.06  -11.62    9.50
   -1.22  -11.83   -8.51
    4.84  -13.67   -3.50
   -3.37  -11.45    4.34
   -0.33  -13.12   -7.15
   -4.47  -11.85    7.71
    0.32  -14.48   -8.45
    1.28  -14.44   -3.12
   -8.82  -11.51    0.35
  -11.69   -8.57    2.04
   -1.87  -11.44    2.94
   -2.82  -13.36   -7.49
   -2.91  -14.21    5.33
   -8.21   -7.67    3.76
   -3.33  -13.11   -9.42
   -2.47  -11.91   -8.67
  -11.29   -7.53    4.38
   -4.72  -13.71    1.00
   -4.79  -11.33   -9.50
  -13.08   -6.21   -1.35
  -11.86   -5.89    8.83
   -1.91  -11.55    8.25
   -0.45  -13.70   -2.98
   -8.26  -11.71   -9.49
   -8.43   -9.72   -7.88
    3.23  -12.55    7.24
   -6.07   -9.03    4.10
   -0.93  -11.70    3.14
   -7.00   -8.22   -9.50
    4.18  -11.84    1.26
   -3.93  -13.96   -7.48
   -5.70  -11.25   -0.99
   -5.07   -9.05   -9.31
   -9.63   -8.24   -6.04
   -4.55  -13.74    7.84
  -12.69   -7.01    8.51
   -0.67  -14.48   -8.19
    1.63  -11.25   -2.29
    1.95  -11.47    0.90
  -12.89   -6.63    9.50
   -1.32  -12.71   -6.94
   -5.90  -11.20   -8.60
   -6.43  -11.66   -0.42
   -1.81  -13.70    0.93
    3.21  -13.60   -8.65
    0.93  -10.78   -2.84
   -7.03   -9.27   -6.88
    2.34  -13.49    9.50
   -4.33  -11.26    3.33
   -7.63   -8.50    5.57
   -8.85   -8.39   -8.07
    1.70  -14.40   -0.55
    0.06  -13.63    6.15
    1.52  -11.13    5.16
   -5.76  -10.18   -4.13
   -6.59   -9.38    9.12
   -5.41  -13.45   -2.46
  -12.14   -7.45    5.39
   -0.20  -13.63   -1.48
   -5.23  -11.29    7.37
  -11.78   -6.93   -8.29
   -5.49   -8.81    1.81
    1.97  -13.48    2.63
  -13.10   -6.11    8.66
  -10.11  -10.39   -3.20
   -6.94  -10.61   -6.06
  -10.73   -8.46    8.15
   -7.28  -10.45    0.17
    1.55  -11.29   -5.16
   -8.91   -9.25    6.94
    2.51  -12.85    5.20
    5.85  -13.27   -4.93
    3.51  -12.86   -0.19
    1.88  -11.41    3.57
   -3.32  -12.95    3.03
  -12.09   -7.85   -1.95
   -6.09   -9.10   -0.69
    1.21  -11.84    5.80
  -10.31   -7.54    6.02
    3.29  -13.21   -6.08
   -6.33  -13.00   -2.79
   -9.96   -9.12    9.45
   -5.69  -10.65   -5.88
   -7.87  -10.35    6.47
   -9.78  -10.66   -0.74
   -4.21  -13.88   -1.42
   -7.35   -9.00   -5.70
   -4.85   -9.64   -3.57
   -4.60   -9.93   -9.44
  -13.38   -5.58   -2.23
    1.31  -14.44    6.22
   -7.09  -11.67   -8.57
    1.38  -11.99   -7.81
  -11.04   -9.19   -5.79
    0.43  -12.44   -2.23
    0.63  -12.14   -3.27
   -9.61  -10.84   -5.08
  -12.99   -6.44   -0.20
   -6.72  -12.85    4.97
   -7.47   -7.83    4.84
   -1.81  -13.61   -6.76
    2.03  -12.85    1.86
  -11.33   -9.01   -3.09
    0.88  -12.82   -0.34
    5.89  -13.25    2.06
   -1.33  -13.59   -3.57
    1.55  -13.51    8.73
   -2.52  -14.28   -3.76
   -9.61   -9.77    8.56
    2.46  -14.27    6.34
    0.51  -14.49   -0.32
   -7.94   -9.87   -1.47
  -11.50   -8.80   -4.99
   -3.98   -9.39   -8.08
   -0.31  -10.54    4.73
   -4.36  -13.08    6.58
   -1.71  -10.24   -8.54
   -4.10  -12.27   -7.94
  -12.83   -6.75    5.60
   -8.67  -11.56   -2.88
   -1.35  -12.63   -4.14
   -2.84  -14.20    8.50
   -1.11  -14.46   -5.19
   -5.24  -10.56   -9.00
   -0.14  -14.50   -5.49
   -5.98  -13.21    5.55
   -3.76  -11.95   -4.90
  -12.21   -7.82    7.32
   -5.48   -9.51   -2.74
    3.47  -11.64    6.16
  -11.66   -8.33    5.38
   -6.74  -12.84   -9.07
    3.77  -12.54    8.38
    1.50  -12.06    8.93
  -12.14   -7.03   -5.88
   -4.43  -11.11    8.91
    0.49  -10.62    3.60
   -5.13  -13.56    1.90
   -5.44  -13.44    7.30
    3.37  -12.41   -6.69
  -12.06   -8.06   -5.37
  -13.96   -3.93    9.39
   -1.00  -11.73   -3.87
   -9.32   -8.74   -9.16
   -6.10   -8.67   -3.25
   -4.19  -12.11    9.50
   -9.90  -10.58   -4.16
    1.63  -14.41    4.05
   -4.37   -9.30    4.14
  -12.42   -7.26   -2.69
   -6.73  -11.98   -4.22
   -9.15  -11.25   -9.32
   -1.05  -10.85   -7.45
  -11.81   -8.32   -3.93
   -4.43  -13.01   -5.99
   -6.09  -10.68    5.67
   -4.99  -13.61   -9.50
  -10.38   -7.31   -9.50
  -11.98   -8.16   -2.95
   -3.06  -10.90    1.38
    0.66  -14.49   -7.49
  -11.19   -6.87   -9.09
    2.65  -12.52    9.50
   -3.52   -9.72    3.67
  -12.49   -7.36   -7.66
   -6.80   -8.53    4.56
  -11.27   -9.10    9.18
   -2.41  -10.54    2.55
[...]
POINT_DATA 2000
SCALARS radius float
LOOKUP_TABLE default
  0.500000000000000     
  0.500000000000000     
  0.500000000000000     
  0.500000000000000     
  0.500000000000000     
  0.500000000000000     
  0.500000000000000     
  0.500000000000000     
  0.500000000000000     
  0.500000000000000     
  0.500000000000000     
  0.500000000000000     
  0.500000000000000     
  0.500000000000000     
  0.500000000000000     
  0.500000000000000     
  0.500000000000000     
  0.500000000000000     
  0.500000000000000     
  0.500000000000000     
  0.500000000000000     
  0.500000000000000     
  0.500000000000000     
  0.500000000000000     
  0.500000000000000     
  0.500000000000000     
  0.500000000000000     
  0.500000000000000     
  0.500000000000000     
  0.500000000000000     
  0.500000000000000     
  0.500000000000000     
  0.500000000000000     
  0.500000000000000     
  0.500000000000000     
  0.500000000000000     
  0.500000000000000     
  0.500000000000000     
  0.500000000000000     
  0.500000000000000     
  0.500000000000000     
  0.500000000000000     
  0.500000000000000     
  0.500000000000000     
  0.500000000000000     
  0.500000000000000     
  0.500000000000000     
  0.500000000000000     
  0.500000000000000     
  0.500000000000000     
  0.500000000000000     
  0.500000000000000     
  0.500000000000000     
  0.500000000000000     
  0.500000000000000     
  0.500000000000000     
  0.500000000000000     
  0.500000000000000     
  0.500000000000000     
  0.500000000000000     
  0.500000000000000     
  0.500000000000000     
  0.500000000000000     
  0.500000000000000     
  0.500000000000000     
  0.500000000000000     
  0.500000000000000     
  0.500000000000000     
  0.500000000000000     
  0.500000000000000     
  0.500000000000000     
  0.500000000000000     
  0.500000000000000     
  0.500000000000000     
  0.500000000000000     
  0.500000000000000     
  0.500000000000000     
  0.500000000000000     
  0.500000000000000     
  0.500000000000000     
  0.500000000000000     
  0.500000000000000     
  0.500000000000000     
  0.500000000000000     
  0.500000000000000     
  0.500000000000000     
  0.500000000000000     
  0.500000000000000     
  0.500000000000000     
  0.500000000000000     
  0.500000000000000     
  0.500000000000000     
  0.500000000000000     
  0.500000000000000     
  0.500000000000000     
  0.500000000000000     
  0.500000000000000     
  0.500000000000000     
  0.500000000000000     
  0.500000000000000     
  0.500000000000000     
  0.500000000000000     
  0.500000000000000     
  0.500000000000000     
  0.500000000000000     
  0.500000000000000     
  0.500000000000000     
  0.500000000000000     
  0.500000000000000     
  0.500000000000000     
  0.500000000000000     
  0.500000000000000     
  0.500000000000000     
  0.500000000000000     
  0.500000000000000     
  0.500000000000000     
  0.500000000000000     
  0.500000000000000     
  0.500000000000000     
  0.500000000000000     
  0.500000000000000     
  0.500000000000000     
  0.500000000000000     
  0.500000000000000     
  0.500000000000000     
  0.500000000000000     
  0.500000000000000     
  0.500000000000000     
  0.500000000000000     
  0.500000000000000     
  0.500000000000000     
  0.500000000000000     
  0.500000000000000     
  0.500000000000000     
  0.500000000000000     
  0.500000000000000     
  0.500000000000000     
  0.500000000000000     
  0.500000000000000     
  0.500000000000000     
  0.500000000000000     
  0.500000000000000     
  0.500000000000000     
  0.500000000000000     
  0.500000000000000     
  0.500000000000000     
  0.500000000000000     
  0.500000000000000     
  0.500000000000000     
  0.500000000000000     
  0.500000000000000     
  0.500000000000000     
  0.500000000000000     
  0.500000000000000     
  0.500000000000000     
  0.500000000000000     
  0.500000000000000     
  0.500000000000000     
  0.500000000000000     
  0.500000000000000     
  0.500000000000000     
  0.500000000000000     
  0.500000000000000     
  0.500000000000000     
  0.500000000000000     
  0.500000000000000     
  0.500000000000000     
  0.500000000000000     
  0.500000000000000     
  0.500000000000000     
  0.500000000000000     
  0.500000000000000     
  0.500000000000000     
  0.500000000000000     
  0.500000000000000     
  0.500000000000000     
  0.500000000000000     
  0.500000000000000     
  0.500000000000000     
  0.500000000000000     
  0.500000000000000     
  0.500000000000000     
  0.500000000000000     
  0.500000000000000     
  0.500000000000000     
  0.500000000000000     
  0.500000000000000     
  0.500000000000000     
  0.500000000000000     
  0.500000000000000     
  0.500000000000000     
  0.500000000000000     
  0.500000000000000     
  0.500000000000000     
  0.500000000000000     
  0.500000000000000     
  0.500000000000000     
  0.500000000000000     
  0.500000000000000     
  0.500000000000000     
  0.500000000000000     
  0.500000000000000     
  0.500000000000000     
  0.500000000000000     
  0.500000000000000     
  0.500000000000000     
  0.500000000000000     
  0.500000000000000     
  0.500000000000000     
  0.500000000000000     
  0.500000000000000     
  0.500000000000000     
  0.500000000000000     
  0.500000000000000     
  0.500000000000000     
  0.500000000000000     
  0.500000000000000     
  0.500000000000000     
  0.500000000000000     
  0.500000000000000     
  0.500000000000000     
  0.500000000000000     
  0.500000000000000     
  0.500000000000000     
  0.500000000000000     
  0.500000000000000     
  0.500000000000000     
  0.500000000000000     
  0.500000000000000     
  0.500000000000000     
  0.500000000000000     
  0.500000000000000     
  0.500000000000000     
  0.500000000000000     
  0.500000000000000     
  0.500000000000000     
  0.500000000000000     
  0.500000000000000     
  0.500000000000000     
  0.500000000000000     
  0.500000000000000     
  0.500000000000000     
  0.500000000000000     
  0.500000000000000     
  0.500000000000000     
  0.500000000000000     
  0.500000000000000     
  0.500000000000000     
  0.500000000000000     
  0.500000000000000     
  0.500000000000000     
  0.500000000000000     
  0.500000000000000     
  0.500000000000000     
  0.500000000000000     
  0.500000000000000     
  0.500000000000000     
  0.500000000000000     
  0.500000000000000     
  0.500000000000000     
  0.500000000000000     
  0.500000000000000     
  0.500000000000000     
  0.500000000000000     
  0.500000000000000     
  0.500000000000000     
  0.500000000000000     
  0.500000000000000     
  0.500000000000000     
  0.500000000000000     
  0.500000000000000     
  0.500000000000000     
  0.500000000000000     
  0.500000000000000     
  0.500000000000000     
  0.500000000000000     
  0.500000000000000     
  0.500000000000000     
  0.500000000000000     
  0.500000000000000     
  0.500000000000000     
  0.500000000000000     
  0.500000000000000     
  0.500000000000000     
  0.500000000000000     
  0.500000000000000     
  0.500000000000000     
  0.500000000000000     
  0.500000000000000     
  0.500000000000000     
  0.500000000000000     
  0.500000000000000     
  0.500000000000000     
  0.500000000000000     
  0.500000000000000     
  0.500000000000000     
  0.500000000000000     
  0.500000000000000     
  0.500000000000000     
  0.500000000000000     
  0.500000000000000     
  0.500000000000000     
  0.500000000000000     
  0.500000000000000     
  0.500000000000000     
  0.500000000000000     
  0.500000000000000     
  0.500000000000000     
  0.500000000000000     
  0.500000000000000     
  0.500000000000000     
  0.500000000000000     
  0.500000000000000     
  0.500000000000000     
  0.500000000000000     
  0.500000000000000     
  0.500000000000000     
  0.500000000000000     
  0.500000000000000     
  0.500000000000000     
  0.500000000000000     
  0.500000000000000     
  0.500000000000000     
  0.500000000000000     
  0.500000000000000     
  0.500000000000000     
  0.500000000000000     
  0.500000000000000     
  0.500000000000000     
  0.500000000000000     
  0.500000000000000     
  0.500000000000000     
  0.500000000000000     
  0.500000000000000     
  0.500000000000000     
  0.500000000000000     
  0.500000000000000     
  0.500000000000000     
  0.500000000000000     
  0.500000000000000     
  0.500000000000000     
  0.500000000000000     
  0.500000000000000     
  0.500000000000000     
  0.500000000000000     
  0.500000000000000     
  0.500000000000000     
  0.500000000000000     
  0.500000000000000     
  0.500000000000000     
  0.500000000000000     
  0.500000000000000     
  0.500000000000000     
  0.500000000000000     
  0.500000000000000     
  0.500000000000000     
  0.500000000000000     
  0.500000000000000     
  0.500000000000000     
  0.500000000000000     
  0.500000000000000     
  0.500000000000000     
  0.500000000000000     
  0.500000000000000     
  0.500000000000000     
  0.500000000000000     
  0.500000000000000     
  0.500000000000000     
  0.500000000000000     
  0.500000000000000     
  0.500000000000000     
  0.500000000000000     
  0.500000000000000     
  0.500000000000000     
  0.500000000000000     
  0.500000000000000     
  0.500000000000000     
  0.500000000000000     
  0.500000000000000     
  0.500000000000000     
  0.500000000000000     
  0.500000000000000     
  0.500000000000000     
  0.500000000000000     
  0.500000000000000     
  0.500000000000000     
  0.500000000000000     
  0.500000000000000     
  0.500000000000000     
  0.500000000000000     
  0.500000000000000     
  0.500000000000000     
  0.500000000000000     
  0.500000000000000     
  0.500000000000000     
  0.500000000000000     
  0.500000000000000     
  0.500000000000000     
  0.500000000000000     
  0.500000000000000     
  0.500000000000000     
  0.500000000000000     
  0.500000000000000     
  0.500000000000000     
  0.500000000000000     
  0.500000000000000     
  0.500000000000000     
  0.500000000000000     
  0.500000000000000     
  0.500000000000000     
  0.500000000000000     
  0.500000000000000     
  0.500000000000000     
  0.500000000000000     
  0.500000000000000     
  0.500000000000000     
  0.500000000000000     
  0.500000000000000     
  0.500000000000000     
  0.500000000000000     
  0.500000000000000     
  0.500000000000000     
  0.500000000000000     
  0.500000000000000     
  0.500000000000000     
  0.500000000000000     
  0.500000000000000     
  0.500000000000000     
  0.500000000000000     
  0.500000000000000     
  0.500000000000000     
  0.500000000000000     
  0.500000000000000     
  0.500000000000000     
  0.500000000000000     
  0.500000000000000     
  0.500000000000000     
  0.500000000000000     
  0.500000000000000     
  0.500000000000000     
  0.500000000000000     
  0.500000000000000     
  0.500000000000000     
  0.500000000000000     
  0.500000000000000     
  0.500000000000000     
  0.500000000000000     
  0.500000000000000     
  0.500000000000000     
  0.500000000000000     
  0.500000000000000     
  0.500000000000000     
  0.500000000000000     
  0.500000000000000     
  0.500000000000000     
  0.500000000000000     
  0.500000000000000     
  0.500000000000000     
  0.500000000000000     
  0.500000000000000     
  0.500000000000000     
  0.500000000000000     
  0.500000000000000     
  0.500000000000000     
  0.500000000000000     
  0.500000000000000     
  0.500000000000000     
  0.500000000000000     
  0.500000000000000     
  0.500000000000000     
  0.500000000000000     
  0.500000000000000     
  0.500000000000000     
  0.500000000000000     
  0.500000000000000     
  0.500000000000000     
  0.500000000000000     
  0.500000000000000     
  0.500000000000000     
  0.500000000000000     
  0.500000000000000     
  0.500000000000000     
  0.500000000000000     
  0.500000000000000     
  0.500000000000000     
  0.500000000000000     
  0.500000000000000     
  0.500000000000000     
  0.500000000000000     
  0.500000000000000     
  0.500000000000000     
  0.500000000000000     
  0.500000000000000     
  0.500000000000000     
  0.500000000000000     
  0.500000000000000     
  0.500000000000000     
  0.500000000000000     
  0.500000000000000     
  0.500000000000000     
  0.500000000000000     
  0.500000000000000     
  0.500000000000000     
  0.500000000000000     
  0.500000000000000     
  0.500000000000000     
  0.500000000000000     
  0.500000000000000     
  0.500000000000000     
  0.500000000000000     
  0.500000000000000     
  0.500000000000000     
  0.500000000000000     
  0.500000000000000     
  0.500000000000000     
  0.500000000000000     
  0.500000000000000     
  0.500000000000000     
  0.500000000000000     
  0.500000000000000     
  0.500000000000000     
  0.500000000000000     
  0.500000000000000     
  0.500000000000000     
  0.500000000000000     
  0.500000000000000     
  0.500000000000000     
  0.500000000000000     
  0.500000000000000     
  0.500000000000000     
  0.500000000000000     
  0.500000000000000     
  0.500000000000000     
  0.500000000000000     
  0.500000000000000     
  0.500000000000000     
  0.500000000000000     
  0.500000000000000     
  0.500000000000000     
  0.500000000000000     
  0.500000000000000     
  0.500000000000000     
  0.500000000000000     
  0.500000000000000     
  0.500000000000000     
  0.500000000000000     
  0.500000000000000     
  0.500000000000000     
  0.500000000000000     
  0.500000000000000     
  0.500000000000000     
  0.500000000000000     
  0.500000000000000     
  0.500000000000000     
  0.500000000000000     
  0.500000000000000     
  0.500000000000000     
  0.500000000000000     
  0.500000000000000     
  0.500000000000000     
  0.500000000000000     
  0.500000000000000     
  0.500000000000000     
  0.500000000000000     
  0.500000000000000     
  0.500000000000000     
  0.500000000000000     
  0.500000000000000     
  0.500000000000000     
  0.500000000000000     
  0.500000000000000     
  0.500000000000000     
  0.500000000000000     
  0.500000000000000     
  0.500000000000000     
  0.500000000000000     
  0.500000000000000     
  0.500000000000000     
  0.500000000000000     
  0.500000000000000     
  0.500000000000000     
  0.500000000000000     
  0.500000000000000     
  0.500000000000000     
  0.500000000000000     
  0.500000000000000     
  0.500000000000000     
  0.500000000000000     
  0.500000000000000     
  0.500000000000000     
  0.500000000000000     
  0.500000000000000     
  0.500000000000000     
  0.500000000000000     
  0.500000000000000     
  0.500000000000000     
  0.500000000000000     
  0.500000000000000     
  0.500000000000000     
  0.500000000000000     
  0.500000000000000     
  0.500000000000000     
  0.500000000000000     
  0.500000000000000     
  0.500000000000000     
  0.500000000000000     
  0.500000000000000     
  0.500000000000000     
  0.500000000000000     
  0.500000000000000     
  0.500000000000000     
  0.500000000000000     
  0.500000000000000     
  0.500000000000000     
  0.500000000000000     
  0.500000000000000     
  0.500000000000000     
  0.500000000000000     
  0.500000000000000     
  0.500000000000000     
  0.500000000000000     
  0.500000000000000     
  0.500000000000000     
  0.500000000000000     
  0.500000000000000     
  0.500000000000000     
  0.500000000000000     
  0.500000000000000     
  0.500000000000000     
  0.500000000000000     
  0.500000000000000     
  0.500000000000000     
  0.500000000000000     
  0.500000000000000     
  0.500000000000000     
  0.500000000000000     
  0.500000000000000     
  0.500000000000000     
  0.500000000000000     
  0.500000000000000     
  0.500000000000000     
  0.500000000000000     
  0.500000000000000     
  0.500000000000000     
  0.500000000000000     
  0.500000000000000     
  0.500000000000000     
  0.500000000000000     
  0.500000000000000     
  0.500000000000000     
  0.500000000000000     
  0.500000000000000     
  0.500000000000000     
  0.500000000000000     
  0.500000000000000     
  0.500000000000000     
  0.500000000000000     
  0.500000000000000     
  0.500000000000000     
  0.500000000000000     
  0.500000000000000     
  0.500000000000000     
  0.500000000000000     
  0.500000000000000     
  0.500000000000000     
  0.500000000000000     
  0.500000000000000     
  0.500000000000000     
  0.500000000000000     
  0.500000000000000     
  0.500000000000000     
  0.500000000000000     
  0.500000000000000     
  0.500000000000000     
  0.500000000000000     
  0.500000000000000     
  0.500000000000000     
  0.500000000000000     
  0.500000000000000     
  0.500000000000000     
  0.500000000000000     
  0.500000000000000     
  0.500000000000000     
  0.500000000000000     
  0.500000000000000     
  0.500000000000000     
  0.500000000000000     
  0.500000000000000     
  0.500000000000000     
  0.500000000000000     
  0.500000000000000     
  0.500000000000000     
  0.500000000000000     
  0.500000000000000     
  0.500000000000000     
  0.500000000000000     
  0.500000000000000     
  0.500000000000000     
  0.500000000000000     
  0.500000000000000     
  0.500000000000000     
  0.500000000000000     
  0.500000000000000     
  0.500000000000000     
  0.500000000000000     
  0.500000000000000     
  0.500000000000000     
  0.500000000000000     
  0.500000000000000     
  0.500000000000000     
  0.500000000000000     
  0.500000000000000     
  0.500000000000000     
  0.500000000000000     
  0.500000000000000     
  0.500000000000000     
  0.500000000000000     
  0.500000000000000     
  0.500000000000000     
  0.500000000000000     
  0.500000000000000     
  0.500000000000000     
  0.500000000000000     
  0.500000000000000     
  0.500000000000000     
  0.500000000000000     
  0.500000000000000     
  0.500000000000000     
  0.500000000000000     
  0.500000000000000     
  0.500000000000000     
  0.500000000000000     
  0.500000000000000     
  0.500000000000000     
  0.500000000000000     
  0.500000000000000     
  0.500000000000000     
  0.500000000000000     
  0.500000000000000     
  0.500000000000000     
  0.500000000000000     
  0.500000000000000     
  0.500000000000000     
  0.500000000000000     
  0.500000000000000     
  0.500000000000000     
  0.500000000000000     
  0.500000000000000     
  0.500000000000000     
  0.500000000000000     
  0.500000000000000     
  0.500000000000000     
  0.500000000000000     
  0.500000000000000     
  0.500000000000000     
  0.500000000000000     
  0.500000000000000     
  0.500000000000000     
  0.500000000000000     
  0.500000000000000     
  0.500000000000000     
  0.500000000000000     
  0.500000000000000     
  0.500000000000000     
  0.500000000000000     
  0.500000000000000     
  0.500000000000000     
  0.500000000000000     
  0.500000000000000     
  0.500000000000000     
  0.500000000000000     
  0.500000000000000     
  0.500000000000000     
  0.500000000000000     
  0.500000000000000     
  0.500000000000000     
  0.500000000000000     
  0.500000000000000     
  0.500000000000000     
  0.500000000000000     
  0.500000000000000     
  0.500000000000000     
  0.500000000000000     
  0.500000000000000     
  0.500000000000000     
  0.500000000000000     
  0.500000000000000     
  0.500000000000000     
  0.500000000000000     
  0.500000000000000     
  0.500000000000000     
  0.500000000000000     
  0.500000000000000     
  0.500000000000000     
  0.500000000000000     
  0.500000000000000     
  0.500000000000000     