# vtk DataFile Version 5.1
Data.vtk
ASCII
DATASET UNSTRUCTURED_GRID
 
POINTS 500 float
 -0.19624607457688248       -6.2499971565601866        2.4265393031387705     
  0.38705725006314357       -8.2414599267076252       -2.1782446874245722     
  -1.2465444243042543       -9.3778735692056685      -0.86220350178128768     
  0.22863131435269538       -7.2562691461704549       -2.3618615695960168     
   4.0387710447761913       -5.6102505426498981       -3.5149659898490131     
   7.9196689062647803       -5.0334860345361729       -1.4332123801387904     
   5.1022588501341977       -6.3229494838911577        2.7573857508048998     
   3.3794423341445756       -6.9609798710687283       0.49970138248150631     
   5.0305313258316264       -4.4813203248487090       -3.7782869896118001     
  -2.3066236583474531       -8.3208450230550923       -1.3125445785053518     
   8.2760962724500953      -0.32265071349797192       -4.0700161654764955     
   5.5110305027416322       -7.3493225843233763       -2.4074976164446831     
   4.0600908142558199       -6.6270398067574803        3.6988599198430405     
   4.2068246112286429       -7.4692723755617276       0.17856372570635834     
  -2.0200398250724487       -8.4245499354253237       0.39451570604247160     
   6.6260390904222266       -3.6413210637967062       -1.8204846071958394     
   5.8362193591463578       -4.1717537083407130       -4.3911317291255392     
   5.7948995637358083       -2.9094759976006355        1.0671824444611084     
   1.7363932517088796       -6.8956023890946234        4.8941944593432298     
   4.7203743412232075       -5.6513033781595574       -4.2457982289291509     
   3.4614580745149710       -6.7930239444031422       -1.2877501694683848     
  0.18131186801114360       -9.4982759552535878       -1.7604014314228984E-002
   4.1292392529278530       -7.9439550504101133        3.1768284005864986     
   2.1885913975265812       -7.7519156718885132        4.0762977435190058     
   6.2805694444785045       -5.9991039695938371      -0.70916192583047766     
   3.2991277228559186       -8.8259510214653201       -1.2117883988555018     
   2.0922606127141106       -8.1519048930500340        1.7082685442690970     
   3.8737552873432848       -8.4291685744391334       -2.0340923920214995     
   2.2687571016710852       -6.7557540364657847       -6.2655662857054306     
   4.2819166449596446       -5.4400194316395893        3.2663007808687654     
   8.4312870151687633       -4.2313461964002208       -1.1219695974472910     
   3.9125267097085961       -5.8137817750927958        4.2689160237523671     
   1.3538878000703769       -7.1441891347249671       -6.1104289203141811     
   4.5421954562436264       -7.3017565489295739        1.1114161810022132     
 -0.92281078401116068       -6.4316801408507951       -1.8920556795262993     
   2.1347340335407003       -8.8169647005615186       -2.8196323710254352     
   9.0891577858795696      -0.56815891489978920       0.50046160080240709     
   5.3596338499976230       -4.9761460283388397        5.8743397263794330     
   7.8518843544505268       -3.4780649259150862        1.0338209940335732     
   2.4949335222007818       -6.6010781537787686        6.3592361486066826     
  -1.2458179007595935       -7.9348477590669564       0.79556353797123724     
   6.6426094348506179       -2.6601166901823499        4.0803736663077075     
   2.7449556405733024       -5.5157838546455737        5.8591145664135817     
   8.0140357514633838       -3.5224614120849549        3.6885407171516795     
   5.5954495861867075       -4.9701767984941316       -5.8511876095836026     
   4.7048941440881453       -3.0412976128061229       -5.7719646868314278     
 -0.30541709360520219       -8.9426857260815193        3.1914222981062315     
   8.9285015889022574      -0.33864887493325529       -1.9207612445128832     
   5.2738996442018680       -5.9918994363250775       -3.4571344479177077     
  -3.5145194107446800       -8.3119635103241922        1.1940283047723497     
   9.2476315742557222       -1.9343066775606144      -0.99447887295835702     
   4.0085204775253915       -5.3002376793062940       -4.8859539217247701     
   3.8609383800222776       -6.6879005946583794      -0.34102518645974755     
  -1.9522842807286869       -8.0783303382890015        2.0535943577970666     
 -0.41001672573363745       -8.3340269947638053        2.3929409050904678     
   7.5884938353354094       -3.6421230172493204       -4.2437211598315470     
  -1.6737014267421721       -7.1650774052700124        2.3531043459158538     
 -0.26804232166339448       -8.0188248490734644       -5.0032036609997208     
   5.1512062932652567       -6.7607560632619146       -4.2237142153132492     
  0.40843741611742035       -8.1605657184758975        2.9406575363710448     
   5.0190777340470287       -5.7865295052757739       0.66764738088325659     
   6.2849242367790366       -6.7169373850500076       -2.3726891285595371     
   4.0566139603263274       -7.5461121058540428        4.0929940438389423     
   8.8790836287649935       -2.7542692517100114      -0.55056612634649282     
   3.1665995114740459       -6.7570560958844732       -5.8099268197519915     
   4.0161246386788223       -6.2282096115117582       -5.9065140189917518     
   5.4329505881222957       -6.5358640187513792      -0.68631555389969401     
   7.7300423625252392       -2.1166790304289336        5.0865198835405012     
 -0.94298190534584747       -6.2733693156704895        1.2300387725022677E-002
  -5.4851751042109528E-002  -7.3992818787572965        2.1969786809659388     
   6.7216593394359929       -4.2263039306380152       -4.9351113970812444     
   1.8030274426016430       -7.1991762161138544        5.9301867359722111     
   7.8490670300822210       -2.9012112244958304        4.4618166440406064     
   5.8337820905132185       -4.6267208631351711        1.9737716962168570     
  0.98241041829401821       -9.2681931922172804        1.7665186690392167     
  -1.5338825686800146       -8.2736647496951488       -1.9684022681657489     
   6.3717465104546971       -5.5014249262895270        4.4023570874057611     
   2.0271426049935304       -7.4248426193214501      -0.61622724806498241     
   9.2442595890535699       -2.1807790341388102       0.18275028383794101     
   2.7554404914517430       -5.7911207608289130       -1.5930741183974626     
 -0.12955373485837343       -5.8392054755358140       0.42494421791554843     
  -1.6523170450418128       -7.5252359942969349       -1.3036116287720509     
   4.2731074287321560       -6.8976251682019054        2.7597997823425633     
  -1.8746179243104739       -8.2146156842522622        4.3145105314389998     
   4.7865525361584362       -7.8377461958567043        2.4306748319582696     
   1.0705292678416038       -7.2540491514086574        2.2193689521292876     
   3.6564397739523629       -6.6341828925709381        1.4087086757531644     
   8.5058446291022420       -3.4891583450264232       -2.3602659900527514     
   5.8735384406294981       -7.4265258881912208       0.76580121996839867     
  -1.6299724612599240       -7.4250102621825711       -2.4980289383601946     
   6.5666238608786935       -4.8949924927899131       -2.5678234110772533     
   8.9110171063261312       -1.7907310431469246       -2.6444159375248604     
   8.3833182857074835      -0.43418234234360037      -0.25264399348379907     
   5.1096848611173531       -4.7779509004600680       -2.8237697701837314     
  -2.2567648744112327       -8.1477929915827758       -4.3325001633520861     
   7.2644592839068123       -2.4318435035449570       -5.5226655487291652     
   3.6147597435147540       -8.6426534038484206        1.5202888184254397     
  -1.6665166025796379       -7.8146905834796270      -0.31484894211859754     
   1.6644084351763564       -6.1986454215693909        6.9566675259867772     
  -1.6683044191394616       -7.0737548437298567        4.8829867262823479     
   3.3101245147551088       -6.1445788849319696       -3.0827336531930873     
   6.3088587524086677       -6.2985342348166000       -3.2829586760428495     
 -0.39093024720276837       -9.3664642769561883       -1.5387619767578387     
 -0.69146472330433950       -6.5408357593455388      -0.92190511269435649     
  0.73767944069794278       -9.4317977644974071       0.81065798756379026     
 -0.18868663322049506       -7.5793180306460846        1.2222856008678007     
 -0.92519218676729842       -7.5969950532353723       -5.6284738578337032     
   1.9150893863854679       -7.1152369943872618       -4.2910458937220755     
   9.3398549888313909      -0.70847869676314779        1.5322485808019812     
   1.3245803758060002       -6.4961741744363790       -1.0081814643264171     
   8.2910912934003971       -4.6096900095697357      -0.18834967367107086     
   7.0626760503928443       -4.7538468055967638       0.21774095115537528     
   7.5802142607738112       -5.2146149338774173       -2.3561868452441197     
   1.8610672959904300       -6.2473784027364605       -1.8150892360462869     
   8.9273373915824763       -3.1611698346764214       0.49269720577129661     
   2.9028093873291638       -5.8583202636251244       -3.9499624891551450     
   8.0436973660273843       -3.8199795722843017       -3.3014144632042570     
   1.0348456415250806       -9.2674447346519155       -1.8114815470000281     
  -2.3783228188991035       -7.7559343956638918       -3.3577217889588584     
   2.2641928171594006       -8.3922704359500280        9.0803605258208395E-002
  -2.4660507949491905       -7.5336234242239692       0.48177488551505904     
  0.50050616500880052       -6.5743467758669469        1.7332650499773796     
   6.1495964991113024       -7.0372802392491227        1.6453629676896717     
   2.5099165453656775       -9.1477597017379200      -0.51826770284927626     
   8.0716031807927884       -4.8188656489443682        1.3573676427333665     
[...]
POINT_DATA  500
SCALARS radius float
LOOKUP_TABLE default
  0.50000000000000000     
  0.50000000000000000     
  0.50000000000000000     
  0.50000000000000000     
  0.50000000000000000     
  0.50000000000000000     
  0.50000000000000000     
  0.50000000000000000     
  0.50000000000000000     
  0.50000000000000000     
  0.50000000000000000     
  0.50000000000000000     
  0.50000000000000000     
  0.50000000000000000     
  0.50000000000000000     
  0.50000000000000000     
  0.50000000000000000     
  0.50000000000000000     
  0.50000000000000000     
  0.50000000000000000     
  0.50000000000000000     
  0.50000000000000000     
  0.50000000000000000     
  0.50000000000000000     
  0.50000000000000000     
  0.50000000000000000     
  0.50000000000000000     
  0.50000000000000000     
  0.50000000000000000     
  0.50000000000000000     
  0.50000000000000000     
  0.50000000000000000     
  0.50000000000000000     
  0.50000000000000000     
  0.50000000000000000     
  0.50000000000000000     
  0.50000000000000000     
  0.50000000000000000     
  0.50000000000000000     
  0.50000000000000000     
  0.50000000000000000     
  0.50000000000000000     
  0.50000000000000000     
  0.50000000000000000     
  0.50000000000000000     
  0.50000000000000000     
  0.50000000000000000     
  0.50000000000000000     
  0.50000000000000000     
  0.50000000000000000     
  0.50000000000000000     
  0.50000000000000000     
  0.50000000000000000     
  0.50000000000000000     
  0.50000000000000000     
  0.50000000000000000     
  0.50000000000000000     
  0.50000000000000000     
  0.50000000000000000     
  0.50000000000000000     
  0.50000000000000000     
  0.50000000000000000     
  0.50000000000000000     
  0.50000000000000000     
  0.50000000000000000     
  0.50000000000000000     
  0.50000000000000000     
  0.50000000000000000     
  0.50000000000000000     
  0.50000000000000000     
  0.50000000000000000     
  0.50000000000000000     
  0.50000000000000000     
  0.50000000000000000     
  0.50000000000000000     
  0.50000000000000000     
  0.50000000000000000     
  0.50000000000000000     
  0.50000000000000000     
  0.50000000000000000     
  0.50000000000000000     
  0.50000000000000000     
  0.50000000000000000     
  0.50000000000000000     
  0.50000000000000000     
  0.50000000000000000     
  0.50000000000000000     
  0.50000000000000000     
  0.50000000000000000     
  0.50000000000000000     
  0.50000000000000000     
  0.50000000000000000     
  0.50000000000000000     
  0.50000000000000000     
  0.50000000000000000     
  0.50000000000000000     
  0.50000000000000000     
  0.50000000000000000     
  0.50000000000000000     
  0.50000000000000000     
  0.50000000000000000     
  0.50000000000000000     
  0.50000000000000000     
  0.50000000000000000     
  0.50000000000000000     
  0.50000000000000000     
  0.50000000000000000     
  0.50000000000000000     
  0.50000000000000000     
  0.50000000000000000     
  0.50000000000000000     
  0.50000000000000000     
  0.50000000000000000     
  0.50000000000000000     
  0.50000000000000000     
  0.50000000000000000     
  0.50000000000000000     
  0.50000000000000000     
  0.50000000000000000     
  0.50000000000000000     
  0.50000000000000000     
  0.50000000000000000     
  0.50000000000000000     
  0.50000000000000000     
  0.50000000000000000     
  0.50000000000000000     
  0.50000000000000000     
  0.50000000000000000     
  0.50000000000000000     
  0.50000000000000000     
  0.50000000000000000     
  0.50000000000000000     
  0.50000000000000000     
  0.50000000000000000     
  0.50000000000000000     
  0.50000000000000000     
  0.50000000000000000     
  0.50000000000000000     
  0.50000000000000000     
  0.50000000000000000     
  0.50000000000000000     
  0.50000000000000000     
  0.50000000000000000     
  0.50000000000000000     
  0.50000000000000000     
  0.50000000000000000     
  0.50000000000000000     
  0.50000000000000000     
  0.50000000000000000     
  0.50000000000000000     
  0.50000000000000000     
  0.50000000000000000     
  0.50000000000000000     
  0.50000000000000000     
  0.50000000000000000     
  0.50000000000000000     
  0.50000000000000000     
  0.50000000000000000     
  0.50000000000000000     
  0.50000000000000000     
  0.50000000000000000     
  0.50000000000000000     
  0.50000000000000000     
  0.50000000000000000     
  0.50000000000000000     
  0.50000000000000000     
  0.50000000000000000     
  0.50000000000000000     
  0.50000000000000000     
  0.50000000000000000     
  0.50000000000000000     
  0.50000000000000000     
  0.50000000000000000     
  0.50000000000000000     
  0.50000000000000000     
  0.50000000000000000     
  0.50000000000000000     
  0.50000000000000000     
  0.50000000000000000     
  0.50000000000000000     
  0.50000000000000000     
  0.50000000000000000     
  0.50000000000000000     
  0.50000000000000000     
  0.50000000000000000     
  0.50000000000000000     
  0.50000000000000000     
  0.50000000000000000     
  0.50000000000000000     
  0.50000000000000000     
  0.50000000000000000     
  0.50000000000000000     
  0.50000000000000000     
  0.50000000000000000     
  0.50000000000000000     
  0.50000000000000000     
  0.50000000000000000     
  0.50000000000000000     
  0.50000000000000000     
  0.50000000000000000     
  0.50000000000000000     
  0.50000000000000000     
  0.50000000000000000     
  0.50000000000000000     
  0.50000000000000000     
  0.50000000000000000     
  0.50000000000000000     
  0.50000000000000000     
  0.50000000000000000     
  0.50000000000000000     
  0.50000000000000000     
  0.50000000000000000     
  0.50000000000000000     
  0.50000000000000000     
  0.50000000000000000     
  0.50000000000000000     
  0.50000000000000000     
  0.50000000000000000     
  0.50000000000000000     
  0.50000000000000000     
  0.50000000000000000     
  0.50000000000000000     
  0.50000000000000000     
  0.50000000000000000     
  0.50000000000000000     
  0.50000000000000000     
  0.50000000000000000     
  0.50000000000000000     
  0.50000000000000000     
  0.50000000000000000     
  0.50000000000000000     
  0.50000000000000000     
  0.50000000000000000     
  0.50000000000000000     
  0.50000000000000000     
  0.50000000000000000     
  0.50000000000000000     
  0.50000000000000000     
  0.50000000000000000     
  0.50000000000000000     
  0.50000000000000000     
  0.50000000000000000     
  0.50000000000000000     
  0.50000000000000000     
  0.50000000000000000     
  0.50000000000000000     
  0.50000000000000000     
  0.50000000000000000     
  0.50000000000000000     
  0.50000000000000000     
  0.50000000000000000     
  0.50000000000000000     
  0.50000000000000000     
  0.50000000000000000     
  0.50000000000000000     
  0.50000000000000000     
  0.50000000000000000     
  0.50000000000000000     
  0.50000000000000000     
  0.50000000000000000     
  0.50000000000000000     
  0.50000000000000000     
  0.50000000000000000     
  0.50000000000000000     
  0.50000000000000000     
  0.50000000000000000     
  0.50000000000000000     
  0.50000000000000000     
  0.50000000000000000     
  0.50000000000000000     
  0.50000000000000000     
  0.50000000000000000     
  0.50000000000000000     
  0.50000000000000000     
  0.50000000000000000     
  0.50000000000000000     
  0.50000000000000000     
  0.50000000000000000     
  0.50000000000000000     
  0.50000000000000000     
  0.50000000000000000     
  0.50000000000000000     
  0.50000000000000000     
  0.50000000000000000     
  0.50000000000000000     
  0.50000000000000000     
  0.50000000000000000     
  0.50000000000000000     
  0.50000000000000000     
  0.50000000000000000     
  0.50000000000000000     
  0.50000000000000000     
  0.50000000000000000     
  0.50000000000000000     
  0.50000000000000000     
  0.50000000000000000     
  0.50000000000000000     
  0.50000000000000000     
  0.50000000000000000     
  0.50000000000000000     
  0.50000000000000000     
  0.50000000000000000     
  0.50000000000000000     
  0.50000000000000000     
  0.50000000000000000     
  0.50000000000000000     
  0.50000000000000000     
  0.50000000000000000     
  0.50000000000000000     
  0.50000000000000000     
  0.50000000000000000     
  0.50000000000000000     
  0.50000000000000000     
  0.50000000000000000     
  0.50000000000000000     
  0.50000000000000000     
  0.50000000000000000     
  0.50000000000000000     
  0.50000000000000000     
  0.50000000000000000     
  0.50000000000000000     
  0.50000000000000000     
  0.50000000000000000     
  0.50000000000000000     
  0.50000000000000000     
  0.50000000000000000     
  0.50000000000000000     
  0.50000000000000000     
  0.50000000000000000     
  0.50000000000000000     
  0.50000000000000000     
  0.50000000000000000     
  0.50000000000000000     
  0.50000000000000000     
  0.50000000000000000     
  0.50000000000000000     
  0.50000000000000000     
  0.50000000000000000     
  0.50000000000000000     
  0.50000000000000000     
  0.50000000000000000     
  0.50000000000000000     
  0.50000000000000000     
  0.50000000000000000     
  0.50000000000000000     
  0.50000000000000000     
  0.50000000000000000     
  0.50000000000000000     
  0.50000000000000000     
  0.50000000000000000     
  0.50000000000000000     
  0.50000000000000000     
  0.50000000000000000     
  0.50000000000000000     
  0.50000000000000000     
  0.50000000000000000     
  0.50000000000000000     
  0.50000000000000000     
  0.50000000000000000     
  0.50000000000000000     
  0.50000000000000000     
  0.50000000000000000     
  0.50000000000000000     
  0.50000000000000000     
  0.50000000000000000     
  0.50000000000000000     
  0.50000000000000000     
  0.50000000000000000     
  0.50000000000000000     
  0.50000000000000000     
  0.50000000000000000     
  0.50000000000000000     
  0.50000000000000000     
  0.50000000000000000     
  0.50000000000000000     
  0.50000000000000000     
  0.50000000000000000     
  0.50000000000000000     
  0.50000000000000000     
  0.50000000000000000     
  0.50000000000000000     
  0.50000000000000000     
  0.50000000000000000     
  0.50000000000000000     
  0.50000000000000000     
  0.50000000000000000     
  0.50000000000000000     
  0.50000000000000000     
  0.50000000000000000     
  0.50000000000000000     
  0.50000000000000000     
  0.50000000000000000     
  0.50000000000000000     
  0.50000000000000000     
  0.50000000000000000     
  0.50000000000000000     
  0.50000000000000000     
  0.50000000000000000     
  0.50000000000000000     
  0.50000000000000000     
  0.50000000000000000     
  0.50000000000000000     
  0.50000000000000000     
  0.50000000000000000     
  0.50000000000000000     
  0.50000000000000000     
  0.50000000000000000     
  0.50000000000000000     
  0.50000000000000000     
  0.50000000000000000     
  0.50000000000000000     
  0.50000000000000000     
  0.50000000000000000     
  0.50000000000000000     
  0.50000000000000000     
  0.50000000000000000     
  0.50000000000000000     
  0.50000000000000000     
  0.50000000000000000     
  0.50000000000000000     
  0.50000000000000000     
  0.50000000000000000     
  0.50000000000000000     
  0.50000000000000000     
  0.50000000000000000     
  0.50000000000000000     
  0.50000000000000000     
  0.50000000000000000     
  0.50000000000000000     
  0.50000000000000000     
  0.50000000000000000     
  0.50000000000000000     
  0.50000000000000000     
  0.50000000000000000     
  0.50000000000000000     
  0.50000000000000000     
  0.50000000000000000     
  0.50000000000000000     
  0.50000000000000000     
  0.50000000000000000     
  0.50000000000000000     
  0.50000000000000000     
  0.50000000000000000     
  0.50000000000000000     
  0.50000000000000000     
  0.50000000000000000     
  0.50000000000000000     
  0.50000000000000000     
  0.50000000000000000     
  0.50000000000000000     
  0.50000000000000000     
  0.50000000000000000     
  0.50000000000000000     
  0.50000000000000000     
  0.50000000000000000     
  0.50000000000000000     
  0.50000000000000000     
  0.50000000000000000     
  0.50000000000000000     
  0.50000000000000000     
  0.50000000000000000     
  0.50000000000000000     
  0.50000000000000000     
  0.50000000000000000     
  0.50000000000000000     
  0.50000000000000000     
  0.50000000000000000     
  0.50000000000000000     
  0.50000000000000000     
  0.50000000000000000     
  0.50000000000000000     
  0.50000000000000000     
  0.50000000000000000     
  0.50000000000000000     
  0.50000000000000000     
  0.50000000000000000     
  0.50000000000000000     
  0.50000000000000000     
  0.50000000000000000     
  0.50000000000000000     
  0.50000000000000000     
  0.50000000000000000     
  0.50000000000000000     
  0.50000000000000000     
  0.50000000000000000     
  0.50000000000000000     
  0.50000000000000000     
  0.50000000000000000     
  0.50000000000000000     
  0.50000000000000000     
  0.50000000000000000     
  0.50000000000000000     
  0.50000000000000000     
  0.50000000000000000     
  0.50000000000000000     
  0.50000000000000000     
  0.50000000000000000     
  0.50000000000000000     
  0.50000000000000000     
  0.50000000000000000     
