# vtk DataFile Version 5.1
Data.vtk
ASCII
DATASET UNSTRUCTURED_GRID
 
POINTS 500 float
   6.1798723395995454       -2.9311238265631152        6.5096068539220662     
   3.9168770354027345       -5.4998830988419343       -3.6375701437752737     
   5.3180493864279637       -7.5404829929520867       -2.2606974668426116     
   6.4408985605655804       -5.4591013445397536       -1.7411117244978220     
   1.5488478879678678       -9.2697807842875175       -1.3868303743063763     
  0.23409513855937158       -7.5620107518414672       -3.1064908893186876     
   7.4171130481620215       -4.1823389379202833        4.2068341259283226     
  0.32909145110916255       -7.6641208367789897       0.72834757822000995     
   8.9135588419098717       -3.0061808775400625      -0.43383820037976045     
   8.6593770084523829       -1.3293945557020772       -3.6319100297038238     
 -0.24751683514064440       -7.7851478010116368       -3.9553829413646358     
   1.9401539352741541       -6.3735553398001779       -1.3682544018338314     
   4.7955727145859708       -6.4793574170065567        3.0299605626519770     
   9.0263518014366770       -1.7807400671012523       -2.0936296331423998     
   7.3602899880895798       -3.2125296058426511        2.5117095661996500     
   1.1549640432433270       -5.9295202476551996        1.2011522231084888     
   7.9678222359271693       -4.5677791494257614       -2.3421683907896584     
  -2.9245859621788139       -7.7311161564765669       0.35662765217298953     
   7.5533664853698426       -4.8132559661889065        3.1432877325297444     
   4.8051139694221465       -5.6235659279501062       -4.2386505598283133     
  0.38088702139618014       -7.0140176098847880      -0.76940962305641514     
   9.0846254042941759       0.15860425452419560       -2.3348825785152929     
   1.5706597462215082       -6.8421682122989251        5.0731155343121168     
   2.4913025926197001       -8.6304454012395304        3.0915805604742159     
   1.3831233940741461       -8.2111446334039382       -1.2911000945508853     
   6.3855126950586616       -7.0136713410677780      -0.53356959786151392     
  0.73885211856305266       -7.2860946812645215        2.6464775933016038     
   3.4707787246759341       -8.8391980629046358       0.26901240267494803     
   5.7976596551332920       -4.0647489458391926       -4.8129678719612414     
   7.6811567803510200E-002  -6.6118137551576703        2.1746200297656051     
 -0.44648290090899001       -6.8672823590577217      -0.20860946581420645     
   7.6903555030890143       -1.7122875939059088        5.2995334589163425     
   1.0651722270463126       -7.0323864699250755       -6.2975338619240366     
   7.6814193186277153       -5.5556686474558017      -0.61407425524157744     
   8.4032214932754385       -3.0497099332940034       -3.0594955822744807     
   4.6655512635271990       -4.8348029032340483       -3.6397650894696034     
   4.9595365824150281       -5.7216763642358073       -1.0994416076736260     
   1.1048952192643091       -6.4646242258878877        6.8729432387813834     
   1.5913051725364074       -8.4908658541491135        1.4455969627925647     
   8.2123806101268393       -3.9225004909592163        2.4201746678611826     
  -8.8172544479534820E-002  -8.5758416058368869       0.35521361755791325     
   2.9644468821813903       -6.6684978491758287        2.4724072749228130     
   8.0703251874826680       -4.9369083593189087       0.84176826630487434     
   6.6444640962901911       -6.1061726103140632        2.9460148769487757     
   5.4796168281004887       -6.0583437819103505       -4.8362039263623302     
   9.2398250151686749      -0.80822928722840104       -1.9905065879676929     
   1.5041166231913641       -7.8394179738481986        5.1427846566410587     
   4.1336686151018034       -4.8554931709592974        4.2063206262866096E-002
   4.0014478011581609       -6.8704727203627582       -3.3204170491589249     
   6.9405250909410325       -5.6484027933241325       -3.1887773908786818     
   5.0182525083932301       -6.8546622714755996       -1.5975920524323757     
   6.5035676703717611       -2.9650041880683058       -4.3704318656119208     
  -9.3640174493881383E-003  -7.7676670476440508      -0.23150972746999557     
   8.7771012366958132       -3.3345317248520443       -1.3689480765475439     
 -0.61278734219343167       -9.2401860742986148        2.1198977570692095     
   4.4915591036518983       -8.1019928100509286       -2.0880378037440197     
  -2.4920090852500736       -8.0603621750952961        2.4355989082995340     
   1.5280608251570602       -5.5869772734081797       -1.8295053196708879     
   7.3472709949597856       -3.2603000717028694       -2.9102181719723341     
   3.3014059415061419       -7.0474554214131100        3.7608024023576738     
 -0.94554627253325962       -9.4276384533394797       0.68972987698825883     
   1.4147305634984098       -6.4454908368069610       -2.3317369261167364     
   2.4370889820274533       -7.8380173749582891        4.7828661814662263     
   4.0609257323011976       -7.1257185973892181       -1.4977641829503467     
   7.8450417767212342       -3.3950945222932467       -3.9624091676474409     
   6.7713182560249319       -4.5397311996203387       -4.8492068702952080     
   7.1144682025176070E-002  -8.2650646513040584       -2.4143126558838928     
 -0.72347018030092480       -6.7348848647692314       0.78848010653158618     
   4.2884938624485276       -8.4746267707095786      -0.19945751905169617     
   6.9824216484051282       -4.1320764491456119        2.6735619430292692     
   7.4241148094281941       -4.2994017761789589       -4.0434016270018205     
   6.0063898520491570       -6.3728565251975997        3.6824890064038209     
  -1.5862524734102816       -7.9326375206340201       0.80395757602622320     
   2.5253065006039308       -8.1641609146664660        1.2786574008126042     
   2.0872911690521780       -6.5837459299183845        1.5605209404449720     
   4.8043776815973098       -3.5264986893106691       -2.1685648106009228     
   6.1729531607446955       -4.8202651366888487        5.2595643015243194     
   5.9748398856280653       -6.1080238379499043       0.25961061183427298     
   9.1727280597288861      -0.39548798793783724       -1.0766020319677880     
   2.9728142818464578       -6.4500061342777935       -2.8226329950175546     
   2.6761860323993392       -6.8368940952056532       -1.8963198684491798     
   2.5221065701431420       -9.0703874411750025       -1.2719459211737034     
 -0.87724953033253961       -8.5344911464236795        1.1716556440481278     
   2.4193351244635211       -9.0064648100038447        1.8078179268268850     
   3.0692682444545443       -6.2040495216074021        4.2593734199065620     
   5.9318464645737157       -5.1395005519302099        3.6227447492594766     
  0.79816526455468984       -7.4864794004743889        1.5935518851325534     
   2.7269589230013818       -5.8895991554538112        1.8911998108284007     
   3.2887572045651305       -6.1717695934813861        3.2779813573459426     
   3.6722019317070904       -8.3667106891032255       -2.5996271239584834     
   1.8306693746838214       -7.6947704441133977       -3.3793625654047053     
   8.0140448290895776       -3.9656539358806637       -3.1566428317030542     
   2.5841164501341511       -9.1058593894450492       0.80926718693264299     
   4.7793612298038202       -6.7044763215137984       -2.5576144071421245     
   8.9136395869930016      -0.46391152988495060       -3.1763259044452212     
   4.0798698878097985       -4.9850402638208795       -6.9818599633555873     
   4.3099559073962554       -7.2015200183534001        1.2060342282286975     
   6.1487479996854137       -6.8093937920811296        2.4364492570612648     
   8.5558146841460125       -2.0346454174905766        3.5670078418275151     
   5.5568074061323225       -4.2222753506263286        3.7841185265393964     
 -0.95727267952012252       -7.2895018587996923       -3.4051903034024114     
 -0.15391205100309641       -8.1477169732095387       -4.8826412921435010     
   1.0896987822049393       -7.5931247969357756       -4.0434178728714674     
   8.3734715953985663       -4.2459716928259423       -1.4508638713350541     
   4.6151266446075754       -7.8858139191625662        2.5959049766719309     
   6.6248590274776999       -4.4020410443921740        3.6103546923812684     
   2.8292126781787470       -5.9634249204549867       -3.6888001002349871     
  -1.8155577544235064       -8.1688276747645343       -1.4451469232854850     
  0.59365155738196607       -6.6098275306130718        3.8371202825590203     
   7.8151596066535065       -3.5024622262725487      -0.90267740637499083     
   1.7390997785319746       -7.2647144143493163       -1.8502481297796136     
  -2.9290800029222033       -7.3558588893893662       -3.2497766321473307     
   6.8188065498878432       -6.2000585835510122       -2.3045625480517296     
   3.2169783112064962       -6.7591121970123416       -1.0357861275867906     
   4.6879265816960265       -4.4571054880268193      -0.92428583616245064     
 -0.75594337486380903       -8.3149419108314859       -1.7693131228911925     
   6.2809317311607833       -6.3998920966367088       -3.1237020763356536     
   6.4450927681687755       -3.7687324745126176       -3.7753340162769531     
   1.0537671756253406       -8.2096269399637318       -2.2373646244417573     
  0.27157532924427180       -7.4436230667712042        4.3101019948474013     
   7.6895342352467466       -2.7710634617084318       -4.7282078579112987     
 -0.11774860409600654       -9.4992055034521830       -7.1421682196825015E-002
  0.51719229389927723       -6.7195516252472780        1.0024540556376913     
   3.0585732243436179       -7.1948556445050169        5.3951356282482914     
   8.5418650533209171       -4.1248020445207541       0.47175234703373442     
[...]
POINT_DATA  500
SCALARS radius float
LOOKUP_TABLE default
  0.50000000000000000     
  0.50000000000000000     
  0.50000000000000000     
  0.50000000000000000     
  0.50000000000000000     
  0.50000000000000000     
  0.50000000000000000     
  0.50000000000000000     
  0.50000000000000000     
  0.50000000000000000     
  0.50000000000000000     
  0.50000000000000000     
  0.50000000000000000     
  0.50000000000000000     
  0.50000000000000000     
  0.50000000000000000     
  0.50000000000000000     
  0.50000000000000000     
  0.50000000000000000     
  0.50000000000000000     
  0.50000000000000000     
  0.50000000000000000     
  0.50000000000000000     
  0.50000000000000000     
  0.50000000000000000     
  0.50000000000000000     
  0.50000000000000000     
  0.50000000000000000     
  0.50000000000000000     
  0.50000000000000000     
  0.50000000000000000     
  0.50000000000000000     
  0.50000000000000000     
  0.50000000000000000     
  0.50000000000000000     
  0.50000000000000000     
  0.50000000000000000     
  0.50000000000000000     
  0.50000000000000000     
  0.50000000000000000     
  0.50000000000000000     
  0.50000000000000000     
  0.50000000000000000     
  0.50000000000000000     
  0.50000000000000000     
  0.50000000000000000     
  0.50000000000000000     
  0.50000000000000000     
  0.50000000000000000     
  0.50000000000000000     
  0.50000000000000000     
  0.50000000000000000     
  0.50000000000000000     
  0.50000000000000000     
  0.50000000000000000     
  0.50000000000000000     
  0.50000000000000000     
  0.50000000000000000     
  0.50000000000000000     
  0.50000000000000000     
  0.50000000000000000     
  0.50000000000000000     
  0.50000000000000000     
  0.50000000000000000     
  0.50000000000000000     
  0.50000000000000000     
  0.50000000000000000     
  0.50000000000000000     
  0.50000000000000000     
  0.50000000000000000     
  0.50000000000000000     
  0.50000000000000000     
  0.50000000000000000     
  0.50000000000000000     
  0.50000000000000000     
  0.50000000000000000     
  0.50000000000000000     
  0.50000000000000000     
  0.50000000000000000     
  0.50000000000000000     
  0.50000000000000000     
  0.50000000000000000     
  0.50000000000000000     
  0.50000000000000000     
  0.50000000000000000     
  0.50000000000000000     
  0.50000000000000000     
  0.50000000000000000     
  0.50000000000000000     
  0.50000000000000000     
  0.50000000000000000     
  0.50000000000000000     
  0.50000000000000000     
  0.50000000000000000     
  0.50000000000000000     
  0.50000000000000000     
  0.50000000000000000     
  0.50000000000000000     
  0.50000000000000000     
  0.50000000000000000     
  0.50000000000000000     
  0.50000000000000000     
  0.50000000000000000     
  0.50000000000000000     
  0.50000000000000000     
  0.50000000000000000     
  0.50000000000000000     
  0.50000000000000000     
  0.50000000000000000     
  0.50000000000000000     
  0.50000000000000000     
  0.50000000000000000     
  0.50000000000000000     
  0.50000000000000000     
  0.50000000000000000     
  0.50000000000000000     
  0.50000000000000000     
  0.50000000000000000     
  0.50000000000000000     
  0.50000000000000000     
  0.50000000000000000     
  0.50000000000000000     
  0.50000000000000000     
  0.50000000000000000     
  0.50000000000000000     
  0.50000000000000000     
  0.50000000000000000     
  0.50000000000000000     
  0.50000000000000000     
  0.50000000000000000     
  0.50000000000000000     
  0.50000000000000000     
  0.50000000000000000     
  0.50000000000000000     
  0.50000000000000000     
  0.50000000000000000     
  0.50000000000000000     
  0.50000000000000000     
  0.50000000000000000     
  0.50000000000000000     
  0.50000000000000000     
  0.50000000000000000     
  0.50000000000000000     
  0.50000000000000000     
  0.50000000000000000     
  0.50000000000000000     
  0.50000000000000000     
  0.50000000000000000     
  0.50000000000000000     
  0.50000000000000000     
  0.50000000000000000     
  0.50000000000000000     
  0.50000000000000000     
  0.50000000000000000     
  0.50000000000000000     
  0.50000000000000000     
  0.50000000000000000     
  0.50000000000000000     
  0.50000000000000000     
  0.50000000000000000     
  0.50000000000000000     
  0.50000000000000000     
  0.50000000000000000     
  0.50000000000000000     
  0.50000000000000000     
  0.50000000000000000     
  0.50000000000000000     
  0.50000000000000000     
  0.50000000000000000     
  0.50000000000000000     
  0.50000000000000000     
  0.50000000000000000     
  0.50000000000000000     
  0.50000000000000000     
  0.50000000000000000     
  0.50000000000000000     
  0.50000000000000000     
  0.50000000000000000     
  0.50000000000000000     
  0.50000000000000000     
  0.50000000000000000     
  0.50000000000000000     
  0.50000000000000000     
  0.50000000000000000     
  0.50000000000000000     
  0.50000000000000000     
  0.50000000000000000     
  0.50000000000000000     
  0.50000000000000000     
  0.50000000000000000     
  0.50000000000000000     
  0.50000000000000000     
  0.50000000000000000     
  0.50000000000000000     
  0.50000000000000000     
  0.50000000000000000     
  0.50000000000000000     
  0.50000000000000000     
  0.50000000000000000     
  0.50000000000000000     
  0.50000000000000000     
  0.50000000000000000     
  0.50000000000000000     
  0.50000000000000000     
  0.50000000000000000     
  0.50000000000000000     
  0.50000000000000000     
  0.50000000000000000     
  0.50000000000000000     
  0.50000000000000000     
  0.50000000000000000     
  0.50000000000000000     
  0.50000000000000000     
  0.50000000000000000     
  0.50000000000000000     
  0.50000000000000000     
  0.50000000000000000     
  0.50000000000000000     
  0.50000000000000000     
  0.50000000000000000     
  0.50000000000000000     
  0.50000000000000000     
  0.50000000000000000     
  0.50000000000000000     
  0.50000000000000000     
  0.50000000000000000     
  0.50000000000000000     
  0.50000000000000000     
  0.50000000000000000     
  0.50000000000000000     
  0.50000000000000000     
  0.50000000000000000     
  0.50000000000000000     
  0.50000000000000000     
  0.50000000000000000     
  0.50000000000000000     
  0.50000000000000000     
  0.50000000000000000     
  0.50000000000000000     
  0.50000000000000000     
  0.50000000000000000     
  0.50000000000000000     
  0.50000000000000000     
  0.50000000000000000     
  0.50000000000000000     
  0.50000000000000000     
  0.50000000000000000     
  0.50000000000000000     
  0.50000000000000000     
  0.50000000000000000     
  0.50000000000000000     
  0.50000000000000000     
  0.50000000000000000     
  0.50000000000000000     
  0.50000000000000000     
  0.50000000000000000     
  0.50000000000000000     
  0.50000000000000000     
  0.50000000000000000     
  0.50000000000000000     
  0.50000000000000000     
  0.50000000000000000     
  0.50000000000000000     
  0.50000000000000000     
  0.50000000000000000     
  0.50000000000000000     
  0.50000000000000000     
  0.50000000000000000     
  0.50000000000000000     
  0.50000000000000000     
  0.50000000000000000     
  0.50000000000000000     
  0.50000000000000000     
  0.50000000000000000     
  0.50000000000000000     
  0.50000000000000000     
  0.50000000000000000     
  0.50000000000000000     
  0.50000000000000000     
  0.50000000000000000     
  0.50000000000000000     
  0.50000000000000000     
  0.50000000000000000     
  0.50000000000000000     
  0.50000000000000000     
  0.50000000000000000     
  0.50000000000000000     
  0.50000000000000000     
  0.50000000000000000     
  0.50000000000000000     
  0.50000000000000000     
  0.50000000000000000     
  0.50000000000000000     
  0.50000000000000000     
  0.50000000000000000     
  0.50000000000000000     
  0.50000000000000000     
  0.50000000000000000     
  0.50000000000000000     
  0.50000000000000000     
  0.50000000000000000     
  0.50000000000000000     
  0.50000000000000000     
  0.50000000000000000     
  0.50000000000000000     
  0.50000000000000000     
  0.50000000000000000     
  0.50000000000000000     
  0.50000000000000000     
  0.50000000000000000     
  0.50000000000000000     
  0.50000000000000000     
  0.50000000000000000     
  0.50000000000000000     
  0.50000000000000000     
  0.50000000000000000     
  0.50000000000000000     
  0.50000000000000000     
  0.50000000000000000     
  0.50000000000000000     
  0.50000000000000000     
  0.50000000000000000     
  0.50000000000000000     
  0.50000000000000000     
  0.50000000000000000     
  0.50000000000000000     
  0.50000000000000000     
  0.50000000000000000     
  0.50000000000000000     
  0.50000000000000000     
  0.50000000000000000     
  0.50000000000000000     
  0.50000000000000000     
  0.50000000000000000     
  0.50000000000000000     
  0.50000000000000000     
  0.50000000000000000     
  0.50000000000000000     
  0.50000000000000000     
  0.50000000000000000     
  0.50000000000000000     
  0.50000000000000000     
  0.50000000000000000     
  0.50000000000000000     
  0.50000000000000000     
  0.50000000000000000     
  0.50000000000000000     
  0.50000000000000000     
  0.50000000000000000     
  0.50000000000000000     
  0.50000000000000000     
  0.50000000000000000     
  0.50000000000000000     
  0.50000000000000000     
  0.50000000000000000     
  0.50000000000000000     
  0.50000000000000000     
  0.50000000000000000     
  0.50000000000000000     
  0.50000000000000000     
  0.50000000000000000     
  0.50000000000000000     
  0.50000000000000000     
  0.50000000000000000     
  0.50000000000000000     
  0.50000000000000000     
  0.50000000000000000     
  0.50000000000000000     
  0.50000000000000000     
  0.50000000000000000     
  0.50000000000000000     
  0.50000000000000000     
  0.50000000000000000     
  0.50000000000000000     
  0.50000000000000000     
  0.50000000000000000     
  0.50000000000000000     
  0.50000000000000000     
  0.50000000000000000     
  0.50000000000000000     
  0.50000000000000000     
  0.50000000000000000     
  0.50000000000000000     
  0.50000000000000000     
  0.50000000000000000     
  0.50000000000000000     
  0.50000000000000000     
  0.50000000000000000     
  0.50000000000000000     
  0.50000000000000000     
  0.50000000000000000     
  0.50000000000000000     
  0.50000000000000000     
  0.50000000000000000     
  0.50000000000000000     
  0.50000000000000000     
  0.50000000000000000     
  0.50000000000000000     
  0.50000000000000000     
  0.50000000000000000     
  0.50000000000000000     
  0.50000000000000000     
  0.50000000000000000     
  0.50000000000000000     
  0.50000000000000000     
  0.50000000000000000     
  0.50000000000000000     
  0.50000000000000000     
  0.50000000000000000     
  0.50000000000000000     
  0.50000000000000000     
  0.50000000000000000     
  0.50000000000000000     
  0.50000000000000000     
  0.50000000000000000     
  0.50000000000000000     
  0.50000000000000000     
  0.50000000000000000     
  0.50000000000000000     
  0.50000000000000000     
  0.50000000000000000     
  0.50000000000000000     
  0.50000000000000000     
  0.50000000000000000     
  0.50000000000000000     
  0.50000000000000000     
  0.50000000000000000     
  0.50000000000000000     
  0.50000000000000000     
  0.50000000000000000     
  0.50000000000000000     
  0.50000000000000000     
  0.50000000000000000     
  0.50000000000000000     
  0.50000000000000000     
  0.50000000000000000     
  0.50000000000000000     
  0.50000000000000000     
  0.50000000000000000     
  0.50000000000000000     
  0.50000000000000000     
  0.50000000000000000     
  0.50000000000000000     
  0.50000000000000000     
  0.50000000000000000     
  0.50000000000000000     
  0.50000000000000000     
  0.50000000000000000     
  0.50000000000000000     
  0.50000000000000000     
  0.50000000000000000     
  0.50000000000000000     
  0.50000000000000000     
  0.50000000000000000     
  0.50000000000000000     
  0.50000000000000000     
  0.50000000000000000     
  0.50000000000000000     
  0.50000000000000000     
  0.50000000000000000     
  0.50000000000000000     
  0.50000000000000000     
  0.50000000000000000     
  0.50000000000000000     
  0.50000000000000000     
  0.50000000000000000     
  0.50000000000000000     
  0.50000000000000000     
  0.50000000000000000     
  0.50000000000000000     
  0.50000000000000000     
  0.50000000000000000     
  0.50000000000000000     
  0.50000000000000000     
  0.50000000000000000     
  0.50000000000000000     
  0.50000000000000000     
  0.50000000000000000     
  0.50000000000000000     
  0.50000000000000000     
  0.50000000000000000     
  0.50000000000000000     
  0.50000000000000000     
  0.50000000000000000     
  0.50000000000000000     
  0.50000000000000000     
  0.50000000000000000     
  0.50000000000000000     
  0.50000000000000000     
  0.50000000000000000     
  0.50000000000000000     
  0.50000000000000000     
  0.50000000000000000     
  0.50000000000000000     
  0.50000000000000000     
  0.50000000000000000     
  0.50000000000000000     
  0.50000000000000000     
  0.50000000000000000     
  0.50000000000000000     
