# vtk DataFile Version 5.1
Data.vtk
ASCII
DATASET UNSTRUCTURED_GRID
 
POINTS 500 float
  -1.5525334745561647       -8.6022210864883260        2.3525735002247692     
   9.0891721621398176       -2.5968987428362551      -0.84428911224589953     
   9.2721874892767815       0.60733736233500801       0.74184535979500899     
   3.0937630827023384       -6.5061349346349440       -2.5482133612479259     
 -0.57422067258855314       -6.1921303421645097       -1.6736709017860338     
   1.3437608580062745       -6.4409815310813592       -2.1331997616900336     
   1.5343073878973728       -8.0508594390112300        2.3826506556454294     
   5.0550127526128525       -5.7919546846031942        1.0077011461755114     
   7.0308540728729634       -4.7212161349171113       -1.4528425213106508     
   5.9347877969888785       -6.7415958660552597       -3.0948723810087180     
  0.70133578173691957       -6.7560419253845696       -3.7171455942762792     
   8.0153165655054845       -3.7640990722753243       -3.4382307844399032     
   5.0880534103125701       -6.4398527805655643        2.4833873306904528     
   1.3801425163931709       -7.4192607130136832       0.84401348302803858     
   2.8725229462305997       -5.9488934964746942       -3.3569640252967714     
 -0.82350320197345972       -7.6167129591718883      -0.89860848486022837     
 -0.58669159240560398       -6.9582449620146170       -4.2932843290179488     
 -0.19750068953335012       -7.4222998406974305        2.0241057407199037     
   6.5182232520203716       -5.0473888646327483        2.4707040549208714     
  -1.4615746915678905E-002  -8.1158957062818846       -3.3522409743428070     
   5.6787864319482528       -5.0386516785145590      -0.76004179852563925     
   2.5195446460720121       -8.7200792149369413       -2.7980890573777097     
   4.2332627433838974       -8.3236734727177950        1.7275142635171885     
   6.6122185136597968       -4.3947615082637395        3.2272702320492774     
  0.45339899720313975       -8.5345795780336910       -1.0474255502050851     
   6.6642455677751595       -6.2994314726030289       -2.4809350040568163     
   3.4709948278154394       -5.4363850526924180        3.6375622446685925     
   8.9648906360299456       -2.3092931372300156       -1.9666409759395735     
   3.7396044055495787       -6.0442071600805969       -6.2937648827764381     
  0.17719211073702612       -6.6479935863142394        3.8325873885161843     
   6.5019163815967227       -2.1768408774193495       -3.2613824737679797     
   2.3551515299033343       -6.5991727715416406        4.8224315634755932     
   1.1672479029747740       -7.3772096400067104       -5.8709041254097070     
   2.3799528549959037       -7.2828438713599404       0.94595533518610497     
   2.3000712503248875       -9.0253911106939118       -1.8711416214306855     
   3.1368453229260638       -6.7444661870871689       -5.9055696701911060     
   7.7077356441659886       -1.5889366958644591       -5.2630253352185239     
   4.2010662625708379       -6.3949063610929953        5.6294078279606641     
   3.6300886029051869       -7.6714806797474360       0.64149235710320196     
   2.0038416999565869       -7.0683824479030593        6.0160355531228662     
   8.9576287087058901       -2.8671535239191663        1.2009691065426034     
   1.5192805049170295       -6.5493486918147381        3.5507327530412898     
   4.3181687418159633       -4.6172803246838781        5.9193901467229821     
   7.3805065410615276       -4.5831129315879195        3.8432090054712389     
   4.3882796778030420       -4.3545774320515402       -6.1920395016408998     
  -4.9460212015966603       -8.1068150352291219      -0.25808609602113369     
   8.0722597405022256       -1.9580731638060194        1.4012896331276408     
 -0.25377585457316820       -6.7398978060973169       -3.3566776532018414     
   5.6187677389957695       -5.7578318770224470       -3.0074845349577983     
   8.1716277426999184       0.23789037258260778       0.54758005595145320     
  0.94260700354831961       -7.7314917096381821       -4.0110062537652924E-002
   3.3930632033299295       -4.6155772907383197       -7.5762076041414836     
   6.0260103357682615       -4.6270338182316122       0.15433300751408702     
   8.4300066256723838       -3.9063728761898213        1.7898095866548873     
   7.8509988378492883       -3.7011843053066293        3.8160372491610941     
   4.6233085988127192       -5.8323174852819930       -5.8768257321782444     
   7.3965813361338224       -5.5111100322742130        2.1846739831467414     
   3.4380519689835958       -4.9990721054028375       -5.9986898187770876     
   3.4814729653906555       -8.1961775616848165       -3.3094674968758158     
   5.3304090899456327       -5.3149366887327663        4.2868755379904799     
   6.9028359996177100       -6.4948163073566416      -0.51098807999951867     
   7.0631941327646350       -5.1842479972442073       -3.6225118795346090     
   4.8704008192155559       -7.5680403600161421        3.0421918266776529     
   3.0664066132469330       -6.0347249206962053       -1.1962900710724798     
   1.6317579967803137       -8.7083964088533552       -3.4212070665462289     
   4.3229245104136771       -5.2504869749023682       -6.6328339181568499     
   9.1182943664534763E-002  -7.4301315570468667       -2.6333890152563182     
   4.9438011503622645       -3.6164884209348784        5.6416003266683248     
  -2.0120520298860178       -9.2641038472994754       0.60514546351122755     
   4.8443051018095273       -4.6048975926890208        2.6335176814695642     
   7.1876383650058697       -2.8644767340308457       -5.3871012708326340     
  0.96963926408314638       -7.2484216141015416        6.0191204008366439     
   7.9680711491993854       -2.7816043145984652        4.1909268383914862     
   7.3398424261851405       -4.4307008365017788       0.38006416226579764     
   7.9924618782026338       -4.8056427082983495        1.7971231562046075     
   4.6871951630204132       -5.4315904949873888       -2.5305401084651291     
   5.3953975745251750       -6.0010926345473914        5.0126473736164794     
   4.3405241184232466       -6.5310400740168504      -0.67499994801338004     
   3.7352495710630289       -5.5034085763843468       -3.0410167121881631     
  -1.2318450731239727       -7.3579031559483292        1.4095281209716679     
 -0.78245787069731676       -8.5249253669035934       0.39703429157591003     
   4.1194195687832531       -6.2567102527272285       -2.5069068197368782     
   2.7929300368446306       -7.4437418896652963        3.2681630435069122     
   2.2228781480042672       -8.6984587905949358        3.1055384255238483     
   5.7519852175255313       -7.1807632280652571        2.3662687609524169     
   3.6002146725508699       -6.5138357057384422        1.9251360884847593     
   5.6898030970150630       -5.0130355146115066        1.0219794059142886     
   5.1285374712682863       -3.9427643789961220       -5.1883532254103510     
  0.27971639587012065       -6.8415958751270063       0.22647615143636993     
   4.3586178545880125       -8.3981842971817340      -0.78882813688405451     
   3.5537829300530310       -7.5677985028620816       -2.1822180792223418     
   7.6901585642272874       -1.9224082470074058        5.1488145596273203     
 -0.57382756956863601       -8.3484801957019545        2.0419809693750226     
   5.1581349388268309       -6.5265270133619451       -2.4837451273460371     
 -0.13390493698379655       -8.2132060739353783       -4.7722921676043466     
   7.2158187381492205       -1.5451437176954965       -4.2077651603722277     
   6.7384370462348828       -6.2399751676510702        2.3736617673914036     
   9.3071135003063379       -1.8966992110434100      -0.16252898913266312     
  -1.1613450612653566       -8.4196207696614405        4.2114243926716162     
 -0.40529241793546883       -9.0871391025911361        2.7071560699945425     
 -0.89081436627948718       -7.6877613070692368       -3.6790042781978474     
   5.7474009478928760       -6.2505987311307498       -4.2407108829517028     
 -0.65595155473198130       -8.6295344710974042       -3.9205703828262291     
   8.3759160853083650       -4.3909537389484168      -0.39359666371074770     
   4.6814283027013373       -4.8754127781453276      -0.33302127359975248     
   9.0657874675012717       -2.8111778928990603       0.18223839522475660     
  -1.4561922118026422       -8.6708503261369980       -3.1837805415264429     
   6.8571720484384020       -4.3248982247461223       -2.6244466138195461     
 -0.71609695423531905       -7.3331879870284240       0.36711009628256125     
   7.7440063647395538       -3.5135458132411546       0.29725001784999144     
   8.7647889791358580       -2.1702114153251806       -2.9487710857418143     
   1.7724306822609603       -8.3532602002469520       0.62642297737083885     
   7.4301616670135582       -4.3388151407929234       -4.0132471374008825     
  -2.1413725188797708       -9.1264929387874378       -1.5401587665229997     
   2.5025449370739890       -7.3097704385952875      -0.80434378188498179     
   1.0624498885997180       -7.7850274772218153       -3.5713438143644769     
   5.9138214607531729       -4.1729096757934485       -4.5351786692370988     
   9.3877691257741027      -0.96538556131844155      -0.54774116705866538     
   4.4518482122891854       -8.1987565471105093       -1.7919944217715964     
   2.4077220617274242       -6.2309649702070278       0.55067218520767969     
   5.0418735897139033       -5.0330082200607782       -1.5317771611378246     
   5.6036390248360499       -7.6490819516385100       0.43307690208170868     
   6.5466818905228035       -6.0201114178984678        3.3390606024764033     
   8.8177257580208988       -3.4993199196354570      -0.50045669340154619     
   1.5895182887258634       -5.8864333042135568       -8.2794112952464111E-003
[...]
POINT_DATA  500
SCALARS radius float
LOOKUP_TABLE default
  0.50000000000000000     
  0.50000000000000000     
  0.50000000000000000     
  0.50000000000000000     
  0.50000000000000000     
  0.50000000000000000     
  0.50000000000000000     
  0.50000000000000000     
  0.50000000000000000     
  0.50000000000000000     
  0.50000000000000000     
  0.50000000000000000     
  0.50000000000000000     
  0.50000000000000000     
  0.50000000000000000     
  0.50000000000000000     
  0.50000000000000000     
  0.50000000000000000     
  0.50000000000000000     
  0.50000000000000000     
  0.50000000000000000     
  0.50000000000000000     
  0.50000000000000000     
  0.50000000000000000     
  0.50000000000000000     
  0.50000000000000000     
  0.50000000000000000     
  0.50000000000000000     
  0.50000000000000000     
  0.50000000000000000     
  0.50000000000000000     
  0.50000000000000000     
  0.50000000000000000     
  0.50000000000000000     
  0.50000000000000000     
  0.50000000000000000     
  0.50000000000000000     
  0.50000000000000000     
  0.50000000000000000     
  0.50000000000000000     
  0.50000000000000000     
  0.50000000000000000     
  0.50000000000000000     
  0.50000000000000000     
  0.50000000000000000     
  0.50000000000000000     
  0.50000000000000000     
  0.50000000000000000     
  0.50000000000000000     
  0.50000000000000000     
  0.50000000000000000     
  0.50000000000000000     
  0.50000000000000000     
  0.50000000000000000     
  0.50000000000000000     
  0.50000000000000000     
  0.50000000000000000     
  0.50000000000000000     
  0.50000000000000000     
  0.50000000000000000     
  0.50000000000000000     
  0.50000000000000000     
  0.50000000000000000     
  0.50000000000000000     
  0.50000000000000000     
  0.50000000000000000     
  0.50000000000000000     
  0.50000000000000000     
  0.50000000000000000     
  0.50000000000000000     
  0.50000000000000000     
  0.50000000000000000     
  0.50000000000000000     
  0.50000000000000000     
  0.50000000000000000     
  0.50000000000000000     
  0.50000000000000000     
  0.50000000000000000     
  0.50000000000000000     
  0.50000000000000000     
  0.50000000000000000     
  0.50000000000000000     
  0.50000000000000000     
  0.50000000000000000     
  0.50000000000000000     
  0.50000000000000000     
  0.50000000000000000     
  0.50000000000000000     
  0.50000000000000000     
  0.50000000000000000     
  0.50000000000000000     
  0.50000000000000000     
  0.50000000000000000     
  0.50000000000000000     
  0.50000000000000000     
  0.50000000000000000     
  0.50000000000000000     
  0.50000000000000000     
  0.50000000000000000     
  0.50000000000000000     
  0.50000000000000000     
  0.50000000000000000     
  0.50000000000000000     
  0.50000000000000000     
  0.50000000000000000     
  0.50000000000000000     
  0.50000000000000000     
  0.50000000000000000     
  0.50000000000000000     
  0.50000000000000000     
  0.50000000000000000     
  0.50000000000000000     
  0.50000000000000000     
  0.50000000000000000     
  0.50000000000000000     
  0.50000000000000000     
  0.50000000000000000     
  0.50000000000000000     
  0.50000000000000000     
  0.50000000000000000     
  0.50000000000000000     
  0.50000000000000000     
  0.50000000000000000     
  0.50000000000000000     
  0.50000000000000000     
  0.50000000000000000     
  0.50000000000000000     
  0.50000000000000000     
  0.50000000000000000     
  0.50000000000000000     
  0.50000000000000000     
  0.50000000000000000     
  0.50000000000000000     
  0.50000000000000000     
  0.50000000000000000     
  0.50000000000000000     
  0.50000000000000000     
  0.50000000000000000     
  0.50000000000000000     
  0.50000000000000000     
  0.50000000000000000     
  0.50000000000000000     
  0.50000000000000000     
  0.50000000000000000     
  0.50000000000000000     
  0.50000000000000000     
  0.50000000000000000     
  0.50000000000000000     
  0.50000000000000000     
  0.50000000000000000     
  0.50000000000000000     
  0.50000000000000000     
  0.50000000000000000     
  0.50000000000000000     
  0.50000000000000000     
  0.50000000000000000     
  0.50000000000000000     
  0.50000000000000000     
  0.50000000000000000     
  0.50000000000000000     
  0.50000000000000000     
  0.50000000000000000     
  0.50000000000000000     
  0.50000000000000000     
  0.50000000000000000     
  0.50000000000000000     
  0.50000000000000000     
  0.50000000000000000     
  0.50000000000000000     
  0.50000000000000000     
  0.50000000000000000     
  0.50000000000000000     
  0.50000000000000000     
  0.50000000000000000     
  0.50000000000000000     
  0.50000000000000000     
  0.50000000000000000     
  0.50000000000000000     
  0.50000000000000000     
  0.50000000000000000     
  0.50000000000000000     
  0.50000000000000000     
  0.50000000000000000     
  0.50000000000000000     
  0.50000000000000000     
  0.50000000000000000     
  0.50000000000000000     
  0.50000000000000000     
  0.50000000000000000     
  0.50000000000000000     
  0.50000000000000000     
  0.50000000000000000     
  0.50000000000000000     
  0.50000000000000000     
  0.50000000000000000     
  0.50000000000000000     
  0.50000000000000000     
  0.50000000000000000     
  0.50000000000000000     
  0.50000000000000000     
  0.50000000000000000     
  0.50000000000000000     
  0.50000000000000000     
  0.50000000000000000     
  0.50000000000000000     
  0.50000000000000000     
  0.50000000000000000     
  0.50000000000000000     
  0.50000000000000000     
  0.50000000000000000     
  0.50000000000000000     
  0.50000000000000000     
  0.50000000000000000     
  0.50000000000000000     
  0.50000000000000000     
  0.50000000000000000     
  0.50000000000000000     
  0.50000000000000000     
  0.50000000000000000     
  0.50000000000000000     
  0.50000000000000000     
  0.50000000000000000     
  0.50000000000000000     
  0.50000000000000000     
  0.50000000000000000     
  0.50000000000000000     
  0.50000000000000000     
  0.50000000000000000     
  0.50000000000000000     
  0.50000000000000000     
  0.50000000000000000     
  0.50000000000000000     
  0.50000000000000000     
  0.50000000000000000     
  0.50000000000000000     
  0.50000000000000000     
  0.50000000000000000     
  0.50000000000000000     
  0.50000000000000000     
  0.50000000000000000     
  0.50000000000000000     
  0.50000000000000000     
  0.50000000000000000     
  0.50000000000000000     
  0.50000000000000000     
  0.50000000000000000     
  0.50000000000000000     
  0.50000000000000000     
  0.50000000000000000     
  0.50000000000000000     
  0.50000000000000000     
  0.50000000000000000     
  0.50000000000000000     
  0.50000000000000000     
  0.50000000000000000     
  0.50000000000000000     
  0.50000000000000000     
  0.50000000000000000     
  0.50000000000000000     
  0.50000000000000000     
  0.50000000000000000     
  0.50000000000000000     
  0.50000000000000000     
  0.50000000000000000     
  0.50000000000000000     
  0.50000000000000000     
  0.50000000000000000     
  0.50000000000000000     
  0.50000000000000000     
  0.50000000000000000     
  0.50000000000000000     
  0.50000000000000000     
  0.50000000000000000     
  0.50000000000000000     
  0.50000000000000000     
  0.50000000000000000     
  0.50000000000000000     
  0.50000000000000000     
  0.50000000000000000     
  0.50000000000000000     
  0.50000000000000000     
  0.50000000000000000     
  0.50000000000000000     
  0.50000000000000000     
  0.50000000000000000     
  0.50000000000000000     
  0.50000000000000000     
  0.50000000000000000     
  0.50000000000000000     
  0.50000000000000000     
  0.50000000000000000     
  0.50000000000000000     
  0.50000000000000000     
  0.50000000000000000     
  0.50000000000000000     
  0.50000000000000000     
  0.50000000000000000     
  0.50000000000000000     
  0.50000000000000000     
  0.50000000000000000     
  0.50000000000000000     
  0.50000000000000000     
  0.50000000000000000     
  0.50000000000000000     
  0.50000000000000000     
  0.50000000000000000     
  0.50000000000000000     
  0.50000000000000000     
  0.50000000000000000     
  0.50000000000000000     
  0.50000000000000000     
  0.50000000000000000     
  0.50000000000000000     
  0.50000000000000000     
  0.50000000000000000     
  0.50000000000000000     
  0.50000000000000000     
  0.50000000000000000     
  0.50000000000000000     
  0.50000000000000000     
  0.50000000000000000     
  0.50000000000000000     
  0.50000000000000000     
  0.50000000000000000     
  0.50000000000000000     
  0.50000000000000000     
  0.50000000000000000     
  0.50000000000000000     
  0.50000000000000000     
  0.50000000000000000     
  0.50000000000000000     
  0.50000000000000000     
  0.50000000000000000     
  0.50000000000000000     
  0.50000000000000000     
  0.50000000000000000     
  0.50000000000000000     
  0.50000000000000000     
  0.50000000000000000     
  0.50000000000000000     
  0.50000000000000000     
  0.50000000000000000     
  0.50000000000000000     
  0.50000000000000000     
  0.50000000000000000     
  0.50000000000000000     
  0.50000000000000000     
  0.50000000000000000     
  0.50000000000000000     
  0.50000000000000000     
  0.50000000000000000     
  0.50000000000000000     
  0.50000000000000000     
  0.50000000000000000     
  0.50000000000000000     
  0.50000000000000000     
  0.50000000000000000     
  0.50000000000000000     
  0.50000000000000000     
  0.50000000000000000     
  0.50000000000000000     
  0.50000000000000000     
  0.50000000000000000     
  0.50000000000000000     
  0.50000000000000000     
  0.50000000000000000     
  0.50000000000000000     
  0.50000000000000000     
  0.50000000000000000     
  0.50000000000000000     
  0.50000000000000000     
  0.50000000000000000     
  0.50000000000000000     
  0.50000000000000000     
  0.50000000000000000     
  0.50000000000000000     
  0.50000000000000000     
  0.50000000000000000     
  0.50000000000000000     
  0.50000000000000000     
  0.50000000000000000     
  0.50000000000000000     
  0.50000000000000000     
  0.50000000000000000     
  0.50000000000000000     
  0.50000000000000000     
  0.50000000000000000     
  0.50000000000000000     
  0.50000000000000000     
  0.50000000000000000     
  0.50000000000000000     
  0.50000000000000000     
  0.50000000000000000     
  0.50000000000000000     
  0.50000000000000000     
  0.50000000000000000     
  0.50000000000000000     
  0.50000000000000000     
  0.50000000000000000     
  0.50000000000000000     
  0.50000000000000000     
  0.50000000000000000     
  0.50000000000000000     
  0.50000000000000000     
  0.50000000000000000     
  0.50000000000000000     
  0.50000000000000000     
  0.50000000000000000     
  0.50000000000000000     
  0.50000000000000000     
  0.50000000000000000     
  0.50000000000000000     
  0.50000000000000000     
  0.50000000000000000     
  0.50000000000000000     
  0.50000000000000000     
  0.50000000000000000     
  0.50000000000000000     
  0.50000000000000000     
  0.50000000000000000     
  0.50000000000000000     
  0.50000000000000000     
  0.50000000000000000     
  0.50000000000000000     
  0.50000000000000000     
  0.50000000000000000     
  0.50000000000000000     
  0.50000000000000000     
  0.50000000000000000     
  0.50000000000000000     
  0.50000000000000000     
  0.50000000000000000     
  0.50000000000000000     
  0.50000000000000000     
  0.50000000000000000     
  0.50000000000000000     
  0.50000000000000000     
  0.50000000000000000     
  0.50000000000000000     
  0.50000000000000000     
  0.50000000000000000     
  0.50000000000000000     
  0.50000000000000000     
  0.50000000000000000     
  0.50000000000000000     
  0.50000000000000000     
  0.50000000000000000     
  0.50000000000000000     
  0.50000000000000000     
  0.50000000000000000     
  0.50000000000000000     
  0.50000000000000000     
  0.50000000000000000     
  0.50000000000000000     
  0.50000000000000000     
  0.50000000000000000     
  0.50000000000000000     
  0.50000000000000000     
  0.50000000000000000     
  0.50000000000000000     
  0.50000000000000000     
  0.50000000000000000     
  0.50000000000000000     
  0.50000000000000000     
  0.50000000000000000     
  0.50000000000000000     
  0.50000000000000000     
  0.50000000000000000     
  0.50000000000000000     
  0.50000000000000000     
  0.50000000000000000     
  0.50000000000000000     
  0.50000000000000000     
  0.50000000000000000     
  0.50000000000000000     
  0.50000000000000000     
  0.50000000000000000     
  0.50000000000000000     
  0.50000000000000000     
  0.50000000000000000     
  0.50000000000000000     
  0.50000000000000000     
  0.50000000000000000     
  0.50000000000000000     
  0.50000000000000000     
  0.50000000000000000     
  0.50000000000000000     
  0.50000000000000000     
  0.50000000000000000     
  0.50000000000000000     
  0.50000000000000000     
  0.50000000000000000     
  0.50000000000000000     
  0.50000000000000000     
  0.50000000000000000     
  0.50000000000000000     
  0.50000000000000000     
  0.50000000000000000     
  0.50000000000000000     
  0.50000000000000000     
