# vtk DataFile Version 5.1
Data.vtk
ASCII
DATASET UNSTRUCTURED_GRID
 
POINTS 500 float
   6.4115131775160181       -6.9327276132862163        1.0401925217252004     
   3.8805389941915811       -5.3568760859178450       -1.0989544540174891     
   2.1243618542642739       -6.3866833748159557       0.47344685003248710     
   1.6283493552041040       -7.3934459456607051       -2.1508263875811240     
   4.5233379365084714       -8.1662061024202153       -1.7601838138814296     
 -0.81124735582221685       -8.1358514454345254       -2.4912519102968167     
   2.1705204978757422       -7.9880443691175191        2.2974024713674690     
   3.3871861693707035       -6.6228576532123631        1.0175194717030620     
   7.0998284229089546       -4.2361881987411829       -1.9777716849460587     
   6.7925142747057929       -1.7605426213808046       -3.5680027013559350     
   1.1312624994977809       -9.2828289191828208       -1.6716165033648362     
   3.0872689247639897       -4.7554590275847959       -5.0936035606874865     
   5.5700071936576672       -5.9599138011717532        2.8271262050748804     
 -0.40180106733920928       -8.2494668453185120       0.64544322623027284     
 -0.75375521538550416       -7.1108673318217628       -2.3238294149347460     
   3.7054263954058362       -8.6756502801346826       -1.1193746942256961     
   2.9065849569964435       -8.5557314819962649       -2.9327993374164762     
   1.4436701297022376       -9.3138254445388249        1.1919040282887161     
   6.0423026849843291       -4.8397034835098669        3.5568834480738465     
   6.7332464590082317       -6.0970112474512703       -2.7818560243840795     
   4.3886220555014930       -6.2059190036595977      -0.64204845199724292     
   8.3609377553453328       -2.9887208734773059       -3.3782381341931695     
   8.8305470253306115      -0.97917081060338573        3.2069368712794266     
   4.1719335208561033       -6.1516615405870141        4.3403468662800400     
   2.4612826237057681       -8.1390704237338376       -1.2262690907511511     
   8.4708341634716451      -0.31883721682475302       -3.9829623168962600     
 -0.37624573097657577       -7.2852346484143533        2.7979739424271526     
   3.5449741857864292       -5.6198445792401204       -3.9026881848426727     
   5.6028116206498231       -4.9020628112508939       -5.6833840063743386     
   5.1288289212013298       -7.7214741266811568        2.0701338383728993     
 -0.10852278118845815       -6.8547654714986832       -3.8553524551102880     
   2.5542737038848617       -8.6566486272568319        2.9344705692210948     
   5.7506944731496255       -5.8301345384530512       -4.7260474482418076     
  0.66280417131783131       -8.3292316999156704        1.1701522899280552     
   8.9424397929338113       -2.3403634235114761       -1.5441857305312507     
   6.5669311464555387       -4.1940098693655372       -5.4045062658663614     
  -1.8429390334118991       -9.2921194429120018      -0.70258797841795351     
   4.3536645114662704       -5.9201430508188846        6.0198803863653305     
   5.0304361904181105       -6.9365597052583556       0.63722734850378115     
   4.5396244106319195       -6.5006863624931457        5.2270733860483309     
   2.6912028207390835       -5.9114213736087384        1.1476616153127073     
  -1.2026316616098307       -9.2003540615265376        2.0390130138347109     
   3.5397522652148545       -7.2515306986460359        5.0124689607521198     
 -0.40954819868580511       -7.1319612484532708        4.6398445822189895     
   2.9928290639968118       -7.4138536023205628       -5.1311118954821922     
   3.0467286119798693       -8.1178049347705610       -3.8805822932020124     
   7.2449857133002808       -3.2703440933645234        3.2835131615349940     
  -1.6050877394149692       -9.2120474466814333       -1.6768919486936560     
   5.7010647339540643       -5.3904403818230477       -2.8705233587936090     
   2.1272785768599123       -6.5523425253862682      -0.51273671066031412     
  -3.7775945484945215       -8.4275828835881583       -1.4175535176242611     
   3.9522449421558261       -7.8992804743758089       -3.4966653915356010     
   4.6540453012185550       -5.8347406986174990       0.24771782406034715     
   4.7762585908415609       -4.1959008722438860        3.6338976774078047     
   4.7530448555844842       -4.8423553146341254        5.2005309924656409     
   6.1455748430960027       -3.1943883471032550       -6.5006283074309810     
   5.7326839601845183       -3.8387397138856016        4.1917274815223582     
   4.7920278331919226       -6.5297955503731799       -4.9647856735273477     
   8.3549842531329634       -2.0060562683849845       -3.5634936404444510     
   2.4264866586205227       -7.0322991082954305        4.0939837724478991     
   6.5085633292504426       -3.9299096692227420       0.25457336336647202     
   6.0685668468282667       -1.6743903997003164       -6.4816139115796130     
   7.7036334435032785       -1.8650723583636506        5.1494252697899405     
  -2.6535292351421553       -7.6945441839077402       -2.0248473243476042     
   7.7949736267556959       -3.6027691540549589       -4.0308534030454508     
   4.1507295126001260       -6.1044895346829628       -5.9787922242937519     
  0.50198322838925469       -8.3196014287630415       -1.4289979597772735     
  0.32641770454030078       -8.6765311552990827        3.8550521844308379     
   7.2449185617876122       -6.1328646756978777      -0.33202232839496976     
   3.1235295542403443       -6.0316961565800238        3.4941722511085311     
   2.0037182684572832       -7.4828228269311516       -5.4749843288890050     
   6.3092761858916147       -5.6138078157985181        4.3392889343832302     
  0.89981897552318646       -7.7152708132029879        5.4684338903737340     
   7.6339174263873542       -3.9405625753287543       0.68122628203391167     
   3.7895107240501216       -5.1691018872595915        3.5015171403837675     
   3.4629131367548385       -6.3777356448509490       -2.3986477999158611     
   5.7541333163901252       -4.6046429733068877        5.9582584867238984     
   2.7357061078947700       -7.3160589020416920      -0.72881411032601007     
  -3.3287471111029521       -7.6602230824060040       -3.1589131810581179     
   4.2728768703092390       -8.4779475650532561      -0.29207586880855207     
   5.8841709021500579       -7.4542205795608014       0.24467496300823544     
   2.6463662030170050       -6.9810613250772668       -2.4692890587149305     
   1.4961279300679657       -8.2809254155412564        2.9778012026911935     
   8.4914001660608278       -2.9450043357213240        3.0321170752587139     
   7.1186101346245216       -1.9371137286985642        5.9758977504516420     
   1.8847389129213237       -7.1648507065699114        1.7883582471523172     
   4.3242117919430978       -6.2490439913985183        1.0960419837270421     
  0.29444532377629712       -7.2875564039592753       -4.6690955354925361     
  -2.6455681224284926       -7.8848483462638201       -1.0352954965765582     
   9.4129378258747387      -0.42406014271314163       -1.2100402410110913     
   5.1593578627091636       -6.4911597119355235       -2.0434781035405094     
  -2.6414567339337793       -8.5090158558124962       -3.2897297289501601     
 -0.94252621964084704       -9.4494175357530885      -0.27371481795851532     
   6.5240457061820027       -5.0518071344008595       -2.0355302520880398     
   6.3737758023673798       -5.9786870023799228       -3.7242210827067210     
 -0.68999301582088113       -8.4811384284088103       -3.4953518627183184     
   4.2126505442568201       -3.9425130401033437        6.2138533855571660     
   4.2498497980420833       -5.0220078344548247       0.66786536462095314     
   5.4073898813323114       -7.2483968849983977        2.9062075338853375     
   7.6450150671517836       -5.1155443666100160        2.3416783279254507     
   6.8532393234998130       -6.3073397938869373       -1.8115933560042627     
   6.7821022466786323      -0.97325510343882260       -6.3090610123231574     
   7.2032709578888694       -5.2956533880120995       -3.1607881175903048     
   4.8844087558251621       -4.7445754987676629       -5.4941155220974008E-002
   1.1886344018124801       -6.6702081189451761       0.23587834663216406     
   3.6156866569761017       -5.5402715174852197        1.2442026530034875     
   7.3768411371454130       -5.5546632879159530       -2.2105737500990319     
   5.9368014773166662       -4.8341586693091276       -3.7106443051744624     
  -1.3783668320182920       -8.5642847641436237      -0.11037688366761281     
   7.6580591171493051       -3.4377258872863785      -0.21716495884269846     
  -2.4824954353074671       -8.1424108937426247       -4.2176788191393317     
   3.2773148474327742       -7.8908643016389890       0.61447290003582622     
   3.8496307627973696       -4.2054981093513382       -7.5989466332527984     
   6.6499319410142110       -6.7213119600183244      -0.92433084358350626     
 -0.83170669117974494       -7.0664796179119911      -0.93716319452231456     
   3.8113655086791014       -8.3475758300398155       -2.4580315567677040     
   1.4726634394156524       -6.6583826274093987       -5.2588008028976461     
   4.3349392032411860       -4.8247363348999617       -2.6811469596413113     
   8.9349953201324475       -1.8898541060850986       -2.4535819849617995     
  -1.3629002693181391       -7.9830340643804698       0.71785934253475414     
   3.0711273030261981       -5.9341798518721838       -1.2954051714137922     
   7.8553416107610623       -1.2127386491448300        1.4893494374791130     
   4.8548957792370775       -3.8564314170886025        5.3696768747431367     
   2.8116396152737710       -5.0662337574605951       -3.4909087162388404     
  -2.9182186279136855       -7.9941792299858614       0.34553561277064537     
[...]
POINT_DATA  500
SCALARS radius float
LOOKUP_TABLE default
  0.50000000000000000     
  0.50000000000000000     
  0.50000000000000000     
  0.50000000000000000     
  0.50000000000000000     
  0.50000000000000000     
  0.50000000000000000     
  0.50000000000000000     
  0.50000000000000000     
  0.50000000000000000     
  0.50000000000000000     
  0.50000000000000000     
  0.50000000000000000     
  0.50000000000000000     
  0.50000000000000000     
  0.50000000000000000     
  0.50000000000000000     
  0.50000000000000000     
  0.50000000000000000     
  0.50000000000000000     
  0.50000000000000000     
  0.50000000000000000     
  0.50000000000000000     
  0.50000000000000000     
  0.50000000000000000     
  0.50000000000000000     
  0.50000000000000000     
  0.50000000000000000     
  0.50000000000000000     
  0.50000000000000000     
  0.50000000000000000     
  0.50000000000000000     
  0.50000000000000000     
  0.50000000000000000     
  0.50000000000000000     
  0.50000000000000000     
  0.50000000000000000     
  0.50000000000000000     
  0.50000000000000000     
  0.50000000000000000     
  0.50000000000000000     
  0.50000000000000000     
  0.50000000000000000     
  0.50000000000000000     
  0.50000000000000000     
  0.50000000000000000     
  0.50000000000000000     
  0.50000000000000000     
  0.50000000000000000     
  0.50000000000000000     
  0.50000000000000000     
  0.50000000000000000     
  0.50000000000000000     
  0.50000000000000000     
  0.50000000000000000     
  0.50000000000000000     
  0.50000000000000000     
  0.50000000000000000     
  0.50000000000000000     
  0.50000000000000000     
  0.50000000000000000     
  0.50000000000000000     
  0.50000000000000000     
  0.50000000000000000     
  0.50000000000000000     
  0.50000000000000000     
  0.50000000000000000     
  0.50000000000000000     
  0.50000000000000000     
  0.50000000000000000     
  0.50000000000000000     
  0.50000000000000000     
  0.50000000000000000     
  0.50000000000000000     
  0.50000000000000000     
  0.50000000000000000     
  0.50000000000000000     
  0.50000000000000000     
  0.50000000000000000     
  0.50000000000000000     
  0.50000000000000000     
  0.50000000000000000     
  0.50000000000000000     
  0.50000000000000000     
  0.50000000000000000     
  0.50000000000000000     
  0.50000000000000000     
  0.50000000000000000     
  0.50000000000000000     
  0.50000000000000000     
  0.50000000000000000     
  0.50000000000000000     
  0.50000000000000000     
  0.50000000000000000     
  0.50000000000000000     
  0.50000000000000000     
  0.50000000000000000     
  0.50000000000000000     
  0.50000000000000000     
  0.50000000000000000     
  0.50000000000000000     
  0.50000000000000000     
  0.50000000000000000     
  0.50000000000000000     
  0.50000000000000000     
  0.50000000000000000     
  0.50000000000000000     
  0.50000000000000000     
  0.50000000000000000     
  0.50000000000000000     
  0.50000000000000000     
  0.50000000000000000     
  0.50000000000000000     
  0.50000000000000000     
  0.50000000000000000     
  0.50000000000000000     
  0.50000000000000000     
  0.50000000000000000     
  0.50000000000000000     
  0.50000000000000000     
  0.50000000000000000     
  0.50000000000000000     
  0.50000000000000000     
  0.50000000000000000     
  0.50000000000000000     
  0.50000000000000000     
  0.50000000000000000     
  0.50000000000000000     
  0.50000000000000000     
  0.50000000000000000     
  0.50000000000000000     
  0.50000000000000000     
  0.50000000000000000     
  0.50000000000000000     
  0.50000000000000000     
  0.50000000000000000     
  0.50000000000000000     
  0.50000000000000000     
  0.50000000000000000     
  0.50000000000000000     
  0.50000000000000000     
  0.50000000000000000     
  0.50000000000000000     
  0.50000000000000000     
  0.50000000000000000     
  0.50000000000000000     
  0.50000000000000000     
  0.50000000000000000     
  0.50000000000000000     
  0.50000000000000000     
  0.50000000000000000     
  0.50000000000000000     
  0.50000000000000000     
  0.50000000000000000     
  0.50000000000000000     
  0.50000000000000000     
  0.50000000000000000     
  0.50000000000000000     
  0.50000000000000000     
  0.50000000000000000     
  0.50000000000000000     
  0.50000000000000000     
  0.50000000000000000     
  0.50000000000000000     
  0.50000000000000000     
  0.50000000000000000     
  0.50000000000000000     
  0.50000000000000000     
  0.50000000000000000     
  0.50000000000000000     
  0.50000000000000000     
  0.50000000000000000     
  0.50000000000000000     
  0.50000000000000000     
  0.50000000000000000     
  0.50000000000000000     
  0.50000000000000000     
  0.50000000000000000     
  0.50000000000000000     
  0.50000000000000000     
  0.50000000000000000     
  0.50000000000000000     
  0.50000000000000000     
  0.50000000000000000     
  0.50000000000000000     
  0.50000000000000000     
  0.50000000000000000     
  0.50000000000000000     
  0.50000000000000000     
  0.50000000000000000     
  0.50000000000000000     
  0.50000000000000000     
  0.50000000000000000     
  0.50000000000000000     
  0.50000000000000000     
  0.50000000000000000     
  0.50000000000000000     
  0.50000000000000000     
  0.50000000000000000     
  0.50000000000000000     
  0.50000000000000000     
  0.50000000000000000     
  0.50000000000000000     
  0.50000000000000000     
  0.50000000000000000     
  0.50000000000000000     
  0.50000000000000000     
  0.50000000000000000     
  0.50000000000000000     
  0.50000000000000000     
  0.50000000000000000     
  0.50000000000000000     
  0.50000000000000000     
  0.50000000000000000     
  0.50000000000000000     
  0.50000000000000000     
  0.50000000000000000     
  0.50000000000000000     
  0.50000000000000000     
  0.50000000000000000     
  0.50000000000000000     
  0.50000000000000000     
  0.50000000000000000     
  0.50000000000000000     
  0.50000000000000000     
  0.50000000000000000     
  0.50000000000000000     
  0.50000000000000000     
  0.50000000000000000     
  0.50000000000000000     
  0.50000000000000000     
  0.50000000000000000     
  0.50000000000000000     
  0.50000000000000000     
  0.50000000000000000     
  0.50000000000000000     
  0.50000000000000000     
  0.50000000000000000     
  0.50000000000000000     
  0.50000000000000000     
  0.50000000000000000     
  0.50000000000000000     
  0.50000000000000000     
  0.50000000000000000     
  0.50000000000000000     
  0.50000000000000000     
  0.50000000000000000     
  0.50000000000000000     
  0.50000000000000000     
  0.50000000000000000     
  0.50000000000000000     
  0.50000000000000000     
  0.50000000000000000     
  0.50000000000000000     
  0.50000000000000000     
  0.50000000000000000     
  0.50000000000000000     
  0.50000000000000000     
  0.50000000000000000     
  0.50000000000000000     
  0.50000000000000000     
  0.50000000000000000     
  0.50000000000000000     
  0.50000000000000000     
  0.50000000000000000     
  0.50000000000000000     
  0.50000000000000000     
  0.50000000000000000     
  0.50000000000000000     
  0.50000000000000000     
  0.50000000000000000     
  0.50000000000000000     
  0.50000000000000000     
  0.50000000000000000     
  0.50000000000000000     
  0.50000000000000000     
  0.50000000000000000     
  0.50000000000000000     
  0.50000000000000000     
  0.50000000000000000     
  0.50000000000000000     
  0.50000000000000000     
  0.50000000000000000     
  0.50000000000000000     
  0.50000000000000000     
  0.50000000000000000     
  0.50000000000000000     
  0.50000000000000000     
  0.50000000000000000     
  0.50000000000000000     
  0.50000000000000000     
  0.50000000000000000     
  0.50000000000000000     
  0.50000000000000000     
  0.50000000000000000     
  0.50000000000000000     
  0.50000000000000000     
  0.50000000000000000     
  0.50000000000000000     
  0.50000000000000000     
  0.50000000000000000     
  0.50000000000000000     
  0.50000000000000000     
  0.50000000000000000     
  0.50000000000000000     
  0.50000000000000000     
  0.50000000000000000     
  0.50000000000000000     
  0.50000000000000000     
  0.50000000000000000     
  0.50000000000000000     
  0.50000000000000000     
  0.50000000000000000     
  0.50000000000000000     
  0.50000000000000000     
  0.50000000000000000     
  0.50000000000000000     
  0.50000000000000000     
  0.50000000000000000     
  0.50000000000000000     
  0.50000000000000000     
  0.50000000000000000     
  0.50000000000000000     
  0.50000000000000000     
  0.50000000000000000     
  0.50000000000000000     
  0.50000000000000000     
  0.50000000000000000     
  0.50000000000000000     
  0.50000000000000000     
  0.50000000000000000     
  0.50000000000000000     
  0.50000000000000000     
  0.50000000000000000     
  0.50000000000000000     
  0.50000000000000000     
  0.50000000000000000     
  0.50000000000000000     
  0.50000000000000000     
  0.50000000000000000     
  0.50000000000000000     
  0.50000000000000000     
  0.50000000000000000     
  0.50000000000000000     
  0.50000000000000000     
  0.50000000000000000     
  0.50000000000000000     
  0.50000000000000000     
  0.50000000000000000     
  0.50000000000000000     
  0.50000000000000000     
  0.50000000000000000     
  0.50000000000000000     
  0.50000000000000000     
  0.50000000000000000     
  0.50000000000000000     
  0.50000000000000000     
  0.50000000000000000     
  0.50000000000000000     
  0.50000000000000000     
  0.50000000000000000     
  0.50000000000000000     
  0.50000000000000000     
  0.50000000000000000     
  0.50000000000000000     
  0.50000000000000000     
  0.50000000000000000     
  0.50000000000000000     
  0.50000000000000000     
  0.50000000000000000     
  0.50000000000000000     
  0.50000000000000000     
  0.50000000000000000     
  0.50000000000000000     
  0.50000000000000000     
  0.50000000000000000     
  0.50000000000000000     
  0.50000000000000000     
  0.50000000000000000     
  0.50000000000000000     
  0.50000000000000000     
  0.50000000000000000     
  0.50000000000000000     
  0.50000000000000000     
  0.50000000000000000     
  0.50000000000000000     
  0.50000000000000000     
  0.50000000000000000     
  0.50000000000000000     
  0.50000000000000000     
  0.50000000000000000     
  0.50000000000000000     
  0.50000000000000000     
  0.50000000000000000     
  0.50000000000000000     
  0.50000000000000000     
  0.50000000000000000     
  0.50000000000000000     
  0.50000000000000000     
  0.50000000000000000     
  0.50000000000000000     
  0.50000000000000000     
  0.50000000000000000     
  0.50000000000000000     
  0.50000000000000000     
  0.50000000000000000     
  0.50000000000000000     
  0.50000000000000000     
  0.50000000000000000     
  0.50000000000000000     
  0.50000000000000000     
  0.50000000000000000     
  0.50000000000000000     
  0.50000000000000000     
  0.50000000000000000     
  0.50000000000000000     
  0.50000000000000000     
  0.50000000000000000     
  0.50000000000000000     
  0.50000000000000000     
  0.50000000000000000     
  0.50000000000000000     
  0.50000000000000000     
  0.50000000000000000     
  0.50000000000000000     
  0.50000000000000000     
  0.50000000000000000     
  0.50000000000000000     
  0.50000000000000000     
  0.50000000000000000     
  0.50000000000000000     
  0.50000000000000000     
  0.50000000000000000     
  0.50000000000000000     
  0.50000000000000000     
  0.50000000000000000     
  0.50000000000000000     
  0.50000000000000000     
  0.50000000000000000     
  0.50000000000000000     
  0.50000000000000000     
  0.50000000000000000     
  0.50000000000000000     
  0.50000000000000000     
  0.50000000000000000     
  0.50000000000000000     
  0.50000000000000000     
  0.50000000000000000     
  0.50000000000000000     
  0.50000000000000000     
  0.50000000000000000     
  0.50000000000000000     
  0.50000000000000000     
  0.50000000000000000     
  0.50000000000000000     
  0.50000000000000000     
  0.50000000000000000     
  0.50000000000000000     
  0.50000000000000000     
  0.50000000000000000     
  0.50000000000000000     
  0.50000000000000000     
  0.50000000000000000     
  0.50000000000000000     
  0.50000000000000000     
  0.50000000000000000     
  0.50000000000000000     
  0.50000000000000000     
  0.50000000000000000     
  0.50000000000000000     
  0.50000000000000000     
  0.50000000000000000     
  0.50000000000000000     
  0.50000000000000000     
  0.50000000000000000     
  0.50000000000000000     
  0.50000000000000000     
  0.50000000000000000     
  0.50000000000000000     
  0.50000000000000000     
  0.50000000000000000     
  0.50000000000000000     
  0.50000000000000000     
  0.50000000000000000     
  0.50000000000000000     
  0.50000000000000000     
  0.50000000000000000     
  0.50000000000000000     
  0.50000000000000000     
  0.50000000000000000     
  0.50000000000000000     
  0.50000000000000000     
  0.50000000000000000     
  0.50000000000000000     
  0.50000000000000000     
  0.50000000000000000     
  0.50000000000000000     
  0.50000000000000000     
  0.50000000000000000     
  0.50000000000000000     
