# vtk DataFile Version 5.1
Data.vtk
ASCII
DATASET UNSTRUCTURED_GRID
 
POINTS 500 float
   1.5957480723437363       -7.4725348575150496        5.6425603526175392     
   1.2783209793595727       -6.6570530547097775       -3.5639276467229783     
   5.0348861876313107       -3.7028153073667887       -2.9016063345226906     
   7.6810156365867286       -3.0303728053622971       -2.0414479674786881     
   9.2778699715050195       -1.0692382625020436       -1.6917027896490129     
  -1.6110775672407169       -7.8797113232631020       -1.4140608753688031     
  0.42157174878501724       -7.3246183392814785        6.0273743737767127     
 -0.82302466456597267       -8.3640794653301960       0.94519400043004420     
   6.3184375014340990       -4.0158739748112495       -1.7084588081739827     
  -1.4269763912178002       -8.5032124044914461       -3.9884710226808813     
 -0.79949710464136459       -8.4834683016215244       -1.5072854175788377     
  -1.9748262268158776       -8.4094950746033419      -0.64206895816951992     
   5.4458445656096348       -4.8192139608347295        2.8147526766992175     
 -0.20801805612094101       -7.6937449110579106       -3.8120609381582859     
   5.2152561136690387       -4.8031619724131147        4.9730885716768114     
 -0.61105834413735993       -9.4682757624691192      -0.14202880901163026     
   4.0333031438138613       -4.6406278831120851       -2.4240883317018866     
   7.3696927004849799       -5.9644364358200477       0.36626518636360816     
  0.83137244422999690       -6.5761803162141890        4.0347383774517587     
   4.2141810791362841       -6.5065703396233996       -3.7079959773460387     
  0.86020570904502658       -9.4451077183416388      -0.54777440981668746     
   1.2469377579479828       -6.7912010398908604      -0.98361652935752952     
   1.6353906080721781       -8.0791936084936040        2.6198859835543615     
   8.5504211581991836      -0.31441372327759542        3.3819585269385195     
   3.9943459338171770       -7.5940537205850696      -0.86197286127106465     
   4.1096154475757638       -4.5995616106451722       0.57358181552984400     
 -0.55272242738031629       -8.3855020448558832        1.9078230516796668     
   9.3632299124359211        6.6595479031138521E-002  0.77039835947209212     
   2.5083515813985464       -7.0167201757068574       -4.1235044295495582     
   1.1667831835514475       -9.4188700683821356       0.41568893036122695     
  -1.9712153818688880E-002  -9.0988825860222526       0.58921127839246978     
  0.14176648514548323       -8.8943306126497443        3.3303852899409616     
   5.8047240570733170       -5.7427603479485985       -4.8437525180779328     
   1.1170125735009793       -5.7346310325829668       -1.7211380373349108     
  0.46912386557201646       -6.8372753398150188       -5.0297857891696358     
  0.59075905876688051       -7.1607544096730216       -4.0911234273299808     
   4.1913345748353175       -6.5286936815981278      -0.54486673968888466     
   5.2362240169987464       -6.3951668657709204        4.6659388788316845     
   4.1615097782628796       -7.3772513191474332        1.8311262517027405     
   2.6254410659576415       -5.9580381016544974        1.9462284810113990     
   2.0472462408602645       -8.3170544270678235       0.83160544560714766     
   1.8183257778256658       -7.0993012446913637        2.5311619018348148     
  0.30421084784003516       -5.9828070105093047        3.2170910891607845     
   4.2076911594915725       -3.9318807320822304        7.5398618445958965     
   3.9813754216731581       -3.9737236985569280       -7.6554703075997956     
   1.8760516182874716       -6.5869786226193732       -1.7495775550323978     
   6.6772071086732252       -3.8764294597346924        5.3446565550445495     
 -0.72745996735128116       -7.3658742596059019       0.84943182945800422     
   3.3859797467556190       -7.0593474669298226       -3.6166608026712881     
   5.1493040395802367       -2.8513077207611697       -7.4567261433622356     
   6.8010534574006769       -4.8645638461613441       -2.0870942736952864     
   3.1317973217400819       -6.2026156876595051       -4.0659065485834489     
  -1.1618694893845909       -7.6778164750620679      -0.15558029683780109     
  -2.6335142542941714       -8.9004879006018101       -2.0236426289493785     
   8.8456205772084324       -3.1309059342542365        1.4128404106863730     
   7.4748879331940001       -1.9093948363606095       -2.3119408369233354     
   6.6754914862907757       -6.3590217055898570        2.2789246311994353     
  -2.9225204065184105       -9.0324561753641479       -5.0785355893579312E-002
   5.0370065069396066       -5.1108260787663573       -4.7274556121766160     
   3.9203600812450436       -6.9390865780335247        3.4738537088562342     
   9.0110066704164762       -2.8379012324170576       0.42453185710236030     
 -0.47042187355198967       -8.9786938887181496       -3.0678746848873604     
   7.1200593036649025       -3.0220817160919200        5.0126093612452971     
   6.4111440759474787       -5.5914846435197934       -1.5214694673435372     
   3.1729350557754756       -5.7999499900830624       -6.8218394716111597     
   3.4552697430041017       -6.4184341803061367       -6.0866244430837728     
   2.0836241719737076       -8.3004675043939056      -0.96704479571130819     
   4.3170415372550508       -8.4467869220929437       0.49636648518022342     
   7.8997703728372048      -0.44226691025447651      -0.76517211346830749     
   4.1813261250167244       -5.2764364231212486        3.5315573557186144     
   3.0040486906309365       -6.2019438030327176       -5.0640793624427900     
   4.0981064069344280       -4.8760786677220676        5.7288410262883129     
  0.79626269141434525       -8.5941915395629369       0.87066206575453209     
   5.0155348339074397       -6.7208120467903463        1.7670087295472015     
   1.8387276025187018       -9.0177924964692640        2.3307000079726441     
  -1.5848394315745256       -9.3590704935543876      -0.37836712549890322     
   3.5084395547762126       -5.9609798214578706        6.5075594274003983     
   7.2362321432727885       -4.5782017440642173      -0.16249147537165395     
  -1.7581364058775897       -7.6592335867953842       0.67401915505767129     
   1.6655944280350916       -6.9277035742692066       -2.6675366395912050     
   2.1565772563987640       -7.6346401701591464       -1.7434007625172130     
   9.2084403463613835      -0.31466019858287864       -1.0367261151007838     
   1.1403642480172247       -8.3663839790181314        1.7997678257829990     
   8.2164318955159992      -0.73216118968378063        2.0449587402707006     
 -0.99352182274806333       -8.9140595239895557        3.1308884921812954     
   5.6634618844090951       -4.9625704101568129        4.0868923808079547     
  0.37305842828407659       -8.2276256809001147        2.5213877380629941     
 -0.72957467243505492       -7.2455562092214842        1.8492253972897754     
  0.83300336229227356       -6.9902866828744559        2.9799842965194649     
   6.6911534239669201       -2.1765331762773101       -3.5152880057853197     
   2.8313661286370242       -7.9844469035303751       -2.4049224828958691     
   1.0025086738525029       -6.2344339944360438       -4.4325360606342965     
   9.2534592632209076      -0.69649542473412263        1.4149851662170594     
   6.0584674109854557       -5.1812404100432827       -2.9869481317874973     
 -0.13427191447053535       -7.7621575199397137       -2.8171158961678242     
   4.2016655169502597       -5.5072927270281671       -6.5014061991930463     
   6.5256116756594702       -5.3643803351757349        1.4307107853284593     
   5.7645361144427962       -3.9616173714122676        4.9309893449736455     
 -0.35690593967925521       -7.7201339113649396        5.5203785015158928     
  -5.0169029492609250E-004  -6.9022437664852259        3.5256418884103060     
   5.6963409976287984       -7.4139261082128352       -1.5681691891014409     
   7.5737071848127373       -4.2094618621266484       -3.8948340772152039     
   4.0148303314650482       -8.2489822081530875       -2.4664353216394321     
   3.3228113750270909       -5.8238660329791925       -3.1555399936785422     
   7.9028722186935649       -1.2738517609782585        4.6087711696255376     
   4.4249205671975940       -5.4428793276386100        4.9662305024532465     
   1.6080313089595955       -7.6036259057463731       -3.5700114101784179     
   7.2730118060837556       -5.9916057819276318       -1.2057612903530337     
  -2.5079825113094092       -8.0572070316430811        2.1088544533091254     
   6.8675833409028222       -3.1267305239953025       -3.8838701420610158     
  0.84172190112397050       -7.7204289413898870       -1.4154616387584067     
   6.2256300759030223       -7.1377549932648776      -0.63511437214903033     
   6.7939147982144252       -1.6789905730028596       -6.4040804389123789     
   2.2648531681323014       -7.1591429119760361      -0.53369978045400845     
  0.59256386001163486       -6.7118807799572267      -0.20225557978242278     
   1.1063862435260770       -8.5529900494808722      -0.92655044682647958     
   3.6171069894190793       -5.3310689393679693       -3.9753197572523873     
   1.9667424673629892       -6.1586662897931683       -4.1001253784491061     
   3.5296426030713213       -7.7228087336916511       -1.7381875016137753     
   7.9966075290984850       -4.2613110272548651        2.7279670947257890     
   1.7834074653504066       -7.8955909485913383       -4.9727691127178195     
   9.1310824750340718       -1.9855475348115366       -8.4078930559653778E-002
   3.9264729657779287       -8.5319915245301718        1.4131870274965670     
   5.2994577196074459       -4.0939501818128425        6.0347153185143885     
   3.0772761915958680       -5.7748132735122244       -1.1509136321465379     
[...]
POINT_DATA  500
SCALARS radius float
LOOKUP_TABLE default
  0.50000000000000000     
  0.50000000000000000     
  0.50000000000000000     
  0.50000000000000000     
  0.50000000000000000     
  0.50000000000000000     
  0.50000000000000000     
  0.50000000000000000     
  0.50000000000000000     
  0.50000000000000000     
  0.50000000000000000     
  0.50000000000000000     
  0.50000000000000000     
  0.50000000000000000     
  0.50000000000000000     
  0.50000000000000000     
  0.50000000000000000     
  0.50000000000000000     
  0.50000000000000000     
  0.50000000000000000     
  0.50000000000000000     
  0.50000000000000000     
  0.50000000000000000     
  0.50000000000000000     
  0.50000000000000000     
  0.50000000000000000     
  0.50000000000000000     
  0.50000000000000000     
  0.50000000000000000     
  0.50000000000000000     
  0.50000000000000000     
  0.50000000000000000     
  0.50000000000000000     
  0.50000000000000000     
  0.50000000000000000     
  0.50000000000000000     
  0.50000000000000000     
  0.50000000000000000     
  0.50000000000000000     
  0.50000000000000000     
  0.50000000000000000     
  0.50000000000000000     
  0.50000000000000000     
  0.50000000000000000     
  0.50000000000000000     
  0.50000000000000000     
  0.50000000000000000     
  0.50000000000000000     
  0.50000000000000000     
  0.50000000000000000     
  0.50000000000000000     
  0.50000000000000000     
  0.50000000000000000     
  0.50000000000000000     
  0.50000000000000000     
  0.50000000000000000     
  0.50000000000000000     
  0.50000000000000000     
  0.50000000000000000     
  0.50000000000000000     
  0.50000000000000000     
  0.50000000000000000     
  0.50000000000000000     
  0.50000000000000000     
  0.50000000000000000     
  0.50000000000000000     
  0.50000000000000000     
  0.50000000000000000     
  0.50000000000000000     
  0.50000000000000000     
  0.50000000000000000     
  0.50000000000000000     
  0.50000000000000000     
  0.50000000000000000     
  0.50000000000000000     
  0.50000000000000000     
  0.50000000000000000     
  0.50000000000000000     
  0.50000000000000000     
  0.50000000000000000     
  0.50000000000000000     
  0.50000000000000000     
  0.50000000000000000     
  0.50000000000000000     
  0.50000000000000000     
  0.50000000000000000     
  0.50000000000000000     
  0.50000000000000000     
  0.50000000000000000     
  0.50000000000000000     
  0.50000000000000000     
  0.50000000000000000     
  0.50000000000000000     
  0.50000000000000000     
  0.50000000000000000     
  0.50000000000000000     
  0.50000000000000000     
  0.50000000000000000     
  0.50000000000000000     
  0.50000000000000000     
  0.50000000000000000     
  0.50000000000000000     
  0.50000000000000000     
  0.50000000000000000     
  0.50000000000000000     
  0.50000000000000000     
  0.50000000000000000     
  0.50000000000000000     
  0.50000000000000000     
  0.50000000000000000     
  0.50000000000000000     
  0.50000000000000000     
  0.50000000000000000     
  0.50000000000000000     
  0.50000000000000000     
  0.50000000000000000     
  0.50000000000000000     
  0.50000000000000000     
  0.50000000000000000     
  0.50000000000000000     
  0.50000000000000000     
  0.50000000000000000     
  0.50000000000000000     
  0.50000000000000000     
  0.50000000000000000     
  0.50000000000000000     
  0.50000000000000000     
  0.50000000000000000     
  0.50000000000000000     
  0.50000000000000000     
  0.50000000000000000     
  0.50000000000000000     
  0.50000000000000000     
  0.50000000000000000     
  0.50000000000000000     
  0.50000000000000000     
  0.50000000000000000     
  0.50000000000000000     
  0.50000000000000000     
  0.50000000000000000     
  0.50000000000000000     
  0.50000000000000000     
  0.50000000000000000     
  0.50000000000000000     
  0.50000000000000000     
  0.50000000000000000     
  0.50000000000000000     
  0.50000000000000000     
  0.50000000000000000     
  0.50000000000000000     
  0.50000000000000000     
  0.50000000000000000     
  0.50000000000000000     
  0.50000000000000000     
  0.50000000000000000     
  0.50000000000000000     
  0.50000000000000000     
  0.50000000000000000     
  0.50000000000000000     
  0.50000000000000000     
  0.50000000000000000     
  0.50000000000000000     
  0.50000000000000000     
  0.50000000000000000     
  0.50000000000000000     
  0.50000000000000000     
  0.50000000000000000     
  0.50000000000000000     
  0.50000000000000000     
  0.50000000000000000     
  0.50000000000000000     
  0.50000000000000000     
  0.50000000000000000     
  0.50000000000000000     
  0.50000000000000000     
  0.50000000000000000     
  0.50000000000000000     
  0.50000000000000000     
  0.50000000000000000     
  0.50000000000000000     
  0.50000000000000000     
  0.50000000000000000     
  0.50000000000000000     
  0.50000000000000000     
  0.50000000000000000     
  0.50000000000000000     
  0.50000000000000000     
  0.50000000000000000     
  0.50000000000000000     
  0.50000000000000000     
  0.50000000000000000     
  0.50000000000000000     
  0.50000000000000000     
  0.50000000000000000     
  0.50000000000000000     
  0.50000000000000000     
  0.50000000000000000     
  0.50000000000000000     
  0.50000000000000000     
  0.50000000000000000     
  0.50000000000000000     
  0.50000000000000000     
  0.50000000000000000     
  0.50000000000000000     
  0.50000000000000000     
  0.50000000000000000     
  0.50000000000000000     
  0.50000000000000000     
  0.50000000000000000     
  0.50000000000000000     
  0.50000000000000000     
  0.50000000000000000     
  0.50000000000000000     
  0.50000000000000000     
  0.50000000000000000     
  0.50000000000000000     
  0.50000000000000000     
  0.50000000000000000     
  0.50000000000000000     
  0.50000000000000000     
  0.50000000000000000     
  0.50000000000000000     
  0.50000000000000000     
  0.50000000000000000     
  0.50000000000000000     
  0.50000000000000000     
  0.50000000000000000     
  0.50000000000000000     
  0.50000000000000000     
  0.50000000000000000     
  0.50000000000000000     
  0.50000000000000000     
  0.50000000000000000     
  0.50000000000000000     
  0.50000000000000000     
  0.50000000000000000     
  0.50000000000000000     
  0.50000000000000000     
  0.50000000000000000     
  0.50000000000000000     
  0.50000000000000000     
  0.50000000000000000     
  0.50000000000000000     
  0.50000000000000000     
  0.50000000000000000     
  0.50000000000000000     
  0.50000000000000000     
  0.50000000000000000     
  0.50000000000000000     
  0.50000000000000000     
  0.50000000000000000     
  0.50000000000000000     
  0.50000000000000000     
  0.50000000000000000     
  0.50000000000000000     
  0.50000000000000000     
  0.50000000000000000     
  0.50000000000000000     
  0.50000000000000000     
  0.50000000000000000     
  0.50000000000000000     
  0.50000000000000000     
  0.50000000000000000     
  0.50000000000000000     
  0.50000000000000000     
  0.50000000000000000     
  0.50000000000000000     
  0.50000000000000000     
  0.50000000000000000     
  0.50000000000000000     
  0.50000000000000000     
  0.50000000000000000     
  0.50000000000000000     
  0.50000000000000000     
  0.50000000000000000     
  0.50000000000000000     
  0.50000000000000000     
  0.50000000000000000     
  0.50000000000000000     
  0.50000000000000000     
  0.50000000000000000     
  0.50000000000000000     
  0.50000000000000000     
  0.50000000000000000     
  0.50000000000000000     
  0.50000000000000000     
  0.50000000000000000     
  0.50000000000000000     
  0.50000000000000000     
  0.50000000000000000     
  0.50000000000000000     
  0.50000000000000000     
  0.50000000000000000     
  0.50000000000000000     
  0.50000000000000000     
  0.50000000000000000     
  0.50000000000000000     
  0.50000000000000000     
  0.50000000000000000     
  0.50000000000000000     
  0.50000000000000000     
  0.50000000000000000     
  0.50000000000000000     
  0.50000000000000000     
  0.50000000000000000     
  0.50000000000000000     
  0.50000000000000000     
  0.50000000000000000     
  0.50000000000000000     
  0.50000000000000000     
  0.50000000000000000     
  0.50000000000000000     
  0.50000000000000000     
  0.50000000000000000     
  0.50000000000000000     
  0.50000000000000000     
  0.50000000000000000     
  0.50000000000000000     
  0.50000000000000000     
  0.50000000000000000     
  0.50000000000000000     
  0.50000000000000000     
  0.50000000000000000     
  0.50000000000000000     
  0.50000000000000000     
  0.50000000000000000     
  0.50000000000000000     
  0.50000000000000000     
  0.50000000000000000     
  0.50000000000000000     
  0.50000000000000000     
  0.50000000000000000     
  0.50000000000000000     
  0.50000000000000000     
  0.50000000000000000     
  0.50000000000000000     
  0.50000000000000000     
  0.50000000000000000     
  0.50000000000000000     
  0.50000000000000000     
  0.50000000000000000     
  0.50000000000000000     
  0.50000000000000000     
  0.50000000000000000     
  0.50000000000000000     
  0.50000000000000000     
  0.50000000000000000     
  0.50000000000000000     
  0.50000000000000000     
  0.50000000000000000     
  0.50000000000000000     
  0.50000000000000000     
  0.50000000000000000     
  0.50000000000000000     
  0.50000000000000000     
  0.50000000000000000     
  0.50000000000000000     
  0.50000000000000000     
  0.50000000000000000     
  0.50000000000000000     
  0.50000000000000000     
  0.50000000000000000     
  0.50000000000000000     
  0.50000000000000000     
  0.50000000000000000     
  0.50000000000000000     
  0.50000000000000000     
  0.50000000000000000     
  0.50000000000000000     
  0.50000000000000000     
  0.50000000000000000     
  0.50000000000000000     
  0.50000000000000000     
  0.50000000000000000     
  0.50000000000000000     
  0.50000000000000000     
  0.50000000000000000     
  0.50000000000000000     
  0.50000000000000000     
  0.50000000000000000     
  0.50000000000000000     
  0.50000000000000000     
  0.50000000000000000     
  0.50000000000000000     
  0.50000000000000000     
  0.50000000000000000     
  0.50000000000000000     
  0.50000000000000000     
  0.50000000000000000     
  0.50000000000000000     
  0.50000000000000000     
  0.50000000000000000     
  0.50000000000000000     
  0.50000000000000000     
  0.50000000000000000     
  0.50000000000000000     
  0.50000000000000000     
  0.50000000000000000     
  0.50000000000000000     
  0.50000000000000000     
  0.50000000000000000     
  0.50000000000000000     
  0.50000000000000000     
  0.50000000000000000     
  0.50000000000000000     
  0.50000000000000000     
  0.50000000000000000     
  0.50000000000000000     
  0.50000000000000000     
  0.50000000000000000     
  0.50000000000000000     
  0.50000000000000000     
  0.50000000000000000     
  0.50000000000000000     
  0.50000000000000000     
  0.50000000000000000     
  0.50000000000000000     
  0.50000000000000000     
  0.50000000000000000     
  0.50000000000000000     
  0.50000000000000000     
  0.50000000000000000     
  0.50000000000000000     
  0.50000000000000000     
  0.50000000000000000     
  0.50000000000000000     
  0.50000000000000000     
  0.50000000000000000     
  0.50000000000000000     
  0.50000000000000000     
  0.50000000000000000     
  0.50000000000000000     
  0.50000000000000000     
  0.50000000000000000     
  0.50000000000000000     
  0.50000000000000000     
  0.50000000000000000     
  0.50000000000000000     
  0.50000000000000000     
  0.50000000000000000     
  0.50000000000000000     
  0.50000000000000000     
  0.50000000000000000     
  0.50000000000000000     
  0.50000000000000000     
  0.50000000000000000     
  0.50000000000000000     
  0.50000000000000000     
  0.50000000000000000     
  0.50000000000000000     
  0.50000000000000000     
  0.50000000000000000     
  0.50000000000000000     
  0.50000000000000000     
  0.50000000000000000     
  0.50000000000000000     
  0.50000000000000000     
  0.50000000000000000     
  0.50000000000000000     
  0.50000000000000000     
  0.50000000000000000     
  0.50000000000000000     
  0.50000000000000000     
  0.50000000000000000     
  0.50000000000000000     
  0.50000000000000000     
  0.50000000000000000     
  0.50000000000000000     
  0.50000000000000000     
  0.50000000000000000     
  0.50000000000000000     
  0.50000000000000000     
  0.50000000000000000     
  0.50000000000000000     
  0.50000000000000000     
  0.50000000000000000     
  0.50000000000000000     
  0.50000000000000000     
  0.50000000000000000     
  0.50000000000000000     
  0.50000000000000000     
  0.50000000000000000     
  0.50000000000000000     
  0.50000000000000000     
  0.50000000000000000     
  0.50000000000000000     
  0.50000000000000000     
  0.50000000000000000     
  0.50000000000000000     
  0.50000000000000000     
  0.50000000000000000     
  0.50000000000000000     
  0.50000000000000000     
  0.50000000000000000     
  0.50000000000000000     
  0.50000000000000000     
  0.50000000000000000     
  0.50000000000000000     
  0.50000000000000000     
  0.50000000000000000     
