# vtk DataFile Version 5.1
Data.vtk
ASCII
DATASET UNSTRUCTURED_GRID
 
POINTS 500 float
 -0.39045044531661033       -6.4662646860747941        2.0459204361608685     
   5.3220003180300077       -7.7811057767551048       -1.1302879239958374     
   7.6595432212922621       -5.4730795821639928        1.2678701730912292     
   2.3322132432196327       -6.8616268137200880       -2.5287530677359036     
   1.9227556048793302       -5.5626436841387745      -0.75188247827422061     
   1.6437647730408251       -6.1612345188408533       -2.1672151690333443     
  -1.3231321923169692       -8.5249407403576214        2.9048160436402033     
   4.2976750532269481       -6.3469710480806958       0.98899523345529372     
   5.4177788683775052       -6.5009478948775117       -1.2260975914064647     
  0.71346531005625291       -8.9738118940432816       -3.0350885283425995     
   2.0436018670256932       -6.0685449425150653       -4.2670311567696464     
   4.1071542816171398       -7.9513710593034661       -3.0714244356797802     
   2.7261046103502942       -7.8835903708463153        1.9039378868040573     
  0.24171628349636812       -7.6290383018608621       0.76518666191352480     
   2.6860033748143879       -6.3517764570233481       -3.3162967315014003     
 -0.67599392276397241       -6.6921106978623373       -1.3887155958620372     
   2.3883919127078652       -5.3347907143648614       -4.8631333876659921     
  -1.5441801071114596       -7.6577401710932893        2.4354236915287277     
   4.4386694364521411       -6.9432261751098290        2.2447528722836898     
 -0.33375809385931249       -7.6424117076966240       -4.0168514309209788     
   5.0844150144762850       -5.7040237037277919      -0.72151760104357832     
  -2.5084856998927156       -8.2284161624884558       -3.9340355653603605     
  -2.7636769693515499       -8.9570392978110736        1.4814505068579382     
   5.7509487578944052       -5.6866683169482108        2.8605419825840568     
  -1.7412561581754207       -7.0149853565078955       -1.8071450648807297     
   1.4253586368628703       -9.0850008891296543       -2.3370068705053222     
   4.2698284709545504       -5.5679000343952998        3.2211762415003431     
   5.7012373516727415       -7.3453462364272673       -1.9467771924523447     
   3.5132302462493752       -5.6207131808710598       -6.6870503799346039     
   3.5779846112677394       -4.6080522966097517        5.7321856704910958     
   8.0635447601071242       -4.6775950959881474       -1.8270275180574989     
   2.6706577805018363       -6.5041603690875478        4.8646936064175241     
   3.8652865466533246       -4.7568640383551610       -7.0578816408373699     
   1.2564282050406439       -7.7186444377529577       0.88821837008045412     
  -2.9720793286827765       -8.3844255344212684       -2.3978221090983927     
   2.6047612261472439       -5.9723867986631687       -6.9134852881307207     
   6.9601248249595891       -5.5098703856608813       -3.3831137871431158     
   1.3208969604989176       -7.3168809817474525        5.9134871545103964     
  0.98152635983412606       -8.6000208779269602       0.39747784922550139     
   3.8157452363252884       -5.5058737907143724        5.3514028218418384     
   4.9330296332043302       -8.0750539215540638       0.78270625338748312     
   1.6628314772090245       -6.6550259364105155        3.7665200099824609     
   8.2652530356373450       -1.4889099387232361        4.3870828267735700     
   3.7780031916353831       -7.9717449055359957        3.5253789893009637     
   6.2539647284300059       -3.8734294570984660       -6.0107412832009235     
   6.9409638909700453       -2.2285376262581993        6.0852538505721778     
   9.0675197232716265       -1.3424986028356758       0.75523390949400471     
   3.3738978289472552       -5.0741539880566773       -4.6523199943406315     
   4.4888466825911548       -6.6599411261018702       -2.9351929025038443     
   8.5976307378181449       -3.8580722174335702        1.1080464217550148     
  -1.4432398574168535       -7.8575160386875140      -0.53452113477855068     
   6.7586031830075513       -3.9403452918766950       -5.1454972246001818     
   5.7118036892265014       -5.1398832904030787      -0.17970828211249179     
   3.6267017144911895       -8.5279806078890665        2.0911759794280389     
   4.6119522667716630       -7.4364093327251197        3.6593245454359944     
   3.5770224557764974       -6.3067288995734314       -5.9517785632271796     
   1.7147128507996632       -9.0962429526866817        2.1378644178909849     
   9.2004307277942470       -1.5920519371704842       -1.7225420641323665     
  -1.2007657044512694       -8.4378798224431524       -4.1965622643143501     
   4.3573125186412449       -6.4694704644427423        3.6457814725617226     
  0.88304698284142202       -9.4550895674698960      -0.23913166798945651     
   2.5128998564918512       -8.2820162234943915       -3.9167028117637224     
 -0.83930165818953306       -8.6791464779111269        3.7704451461785280     
   3.2087914036364777       -6.0158897676162884       -1.0481821232339805     
  -2.3166684991208344       -7.8337914340307648       -4.8491900820214271     
   5.5450468505318806       -5.2142540369577883       -5.6845601392571306     
  0.35060294839319517       -6.3064742298088037       -3.0925989205698423     
   8.4280444998724313       -2.1400772099258099        3.6427460127257745     
  -2.9812979800505945       -6.8843977221799264       0.91217231484759798     
   7.2621572554490692       -4.0149220615867947        2.3537497166204604     
   5.6332298421329261       -6.5993536319954718       -3.8065676922785907     
   3.0181900548504434       -5.2384931967134110        7.1700353347379746     
   5.4564210108675510       -6.9080536538458936        3.5716040607903792     
   5.6441924585835910       -6.3393697151777708       0.78351552154928750     
   2.6883324652343474       -8.8730882595879859        2.0709342795595109     
   4.3812609540665717       -5.7631679581599453       -2.5060361627758327     
   1.7036761270803549       -7.8098107437829665        5.1321878356941344     
   3.3735712209845463       -6.9806860925292078      -0.83694935274008386     
   3.6139179440669862       -5.8205908655774605       -3.1596613718703979     
  0.24865800644696101       -5.8540247128879557       0.89662340915633998     
  -2.5857781950721157       -7.2772651125059928       -7.4192214576256452E-002
   3.2864804545822190       -6.5594696192575110       -2.5231224892923083     
  0.32399864069720652       -7.3803035412766285        3.7066084779630906     
  -2.5055031978241775       -7.0718878888723760        4.9273648596573585     
 -0.65272273967485017       -9.1440771040475006        2.4919123539761010     
   2.6673466012470768       -6.8850063593797186        1.8717201801971244     
   5.1848979077385895       -5.4666609754547997       0.61504628310987763     
   8.9078040083285259       -2.0494465945882667       -2.5868531984041976     
 -0.15620446005646982       -7.4200035608352435      -0.13121606630357821     
  -1.8837317109226026       -9.1895369815383443       -1.4987845235160393     
  0.83946261430068159       -8.1183205795771212       -2.4467907358736833     
   5.8712052548398308       -5.8934555882624808        4.5867765695269949     
  -2.8704892273069063       -8.2006992842019635        2.1310994201597229     
   3.0896537519113303       -7.7026138834774116       -2.4397911943486288     
   1.5314326239940685       -5.7096987376090444       -7.4287669315450167     
   7.5566421733460860       -5.0955794111679600       -2.5808466883183154     
  0.67671664291347788       -9.2240669597514913        2.1703261733371391     
   6.0747036055950137       -7.2943329642339885       -4.8690515209591839E-003
   1.2597050560268077       -5.2762642087358040        2.7776896715395405     
   1.8721853332351077       -5.1711298838394972        7.7457194954736961     
  0.84148849629756473       -6.0848416391261306       -5.7049704277258888     
   1.8525452497292327       -7.8513437850243806       -5.0174248612951304     
  0.15215505811605565       -6.4887631464160709       -5.0053445760223774     
   3.4981359780282042       -8.8314533986948796      -0.16078592346847440     
   9.0887479813126237       -1.8623542081066564      -0.14915497251929549     
   5.2835114162503567       -7.8930162165816116      -0.13689333846767640     
  0.11364503990950198       -6.6350381870790631       -4.0125169503907312     
   5.9025059472872918       -5.8771326630385632       -1.8428104557269105     
  -1.0209152287242524       -6.9200196477444074      -0.46713699931518743     
   6.4955625988260941       -5.6916797424351708       0.11594553977401076     
   6.3886240097517115       -6.6691888772417354       -2.2121378308365287     
  -1.2717932879413067       -8.5328176822892132       0.18733042614522749     
   3.6293288713042076       -7.7983851327516476       -4.0326931071118306     
  -2.3504670612126817       -7.5826110726459062       -2.8425653868651155     
   1.3758185159730396       -7.3744415111378485      -0.85188938124309888     
  0.63481245743585124       -7.4785203249863299       -4.2066974514836906     
   6.3030304492728355       -4.2546760931560685       -3.6617986541784218     
   6.8192549988987539       -6.6122117894551513      -0.11284892689170285     
 -0.91937297143275154       -9.0385025038661908       -2.7759098291103159     
   2.3610669238157316       -6.0137378908493258       0.69376887065577098     
   4.5843778222521161       -5.9805453981803769       -1.5488609595527421     
  -1.0055176272507289       -9.4289914143020006       0.57086926116388303     
   1.1834220452697537       -8.9340609247899323        3.0046954307936145     
   4.4221629396148234       -8.4059645150866817      -0.15009597786759324     
   1.4538411652591992       -6.0909984863887061       0.27512128354652404     
[...]
POINT_DATA  500
SCALARS radius float
LOOKUP_TABLE default
  0.50000000000000000     
  0.50000000000000000     
  0.50000000000000000     
  0.50000000000000000     
  0.50000000000000000     
  0.50000000000000000     
  0.50000000000000000     
  0.50000000000000000     
  0.50000000000000000     
  0.50000000000000000     
  0.50000000000000000     
  0.50000000000000000     
  0.50000000000000000     
  0.50000000000000000     
  0.50000000000000000     
  0.50000000000000000     
  0.50000000000000000     
  0.50000000000000000     
  0.50000000000000000     
  0.50000000000000000     
  0.50000000000000000     
  0.50000000000000000     
  0.50000000000000000     
  0.50000000000000000     
  0.50000000000000000     
  0.50000000000000000     
  0.50000000000000000     
  0.50000000000000000     
  0.50000000000000000     
  0.50000000000000000     
  0.50000000000000000     
  0.50000000000000000     
  0.50000000000000000     
  0.50000000000000000     
  0.50000000000000000     
  0.50000000000000000     
  0.50000000000000000     
  0.50000000000000000     
  0.50000000000000000     
  0.50000000000000000     
  0.50000000000000000     
  0.50000000000000000     
  0.50000000000000000     
  0.50000000000000000     
  0.50000000000000000     
  0.50000000000000000     
  0.50000000000000000     
  0.50000000000000000     
  0.50000000000000000     
  0.50000000000000000     
  0.50000000000000000     
  0.50000000000000000     
  0.50000000000000000     
  0.50000000000000000     
  0.50000000000000000     
  0.50000000000000000     
  0.50000000000000000     
  0.50000000000000000     
  0.50000000000000000     
  0.50000000000000000     
  0.50000000000000000     
  0.50000000000000000     
  0.50000000000000000     
  0.50000000000000000     
  0.50000000000000000     
  0.50000000000000000     
  0.50000000000000000     
  0.50000000000000000     
  0.50000000000000000     
  0.50000000000000000     
  0.50000000000000000     
  0.50000000000000000     
  0.50000000000000000     
  0.50000000000000000     
  0.50000000000000000     
  0.50000000000000000     
  0.50000000000000000     
  0.50000000000000000     
  0.50000000000000000     
  0.50000000000000000     
  0.50000000000000000     
  0.50000000000000000     
  0.50000000000000000     
  0.50000000000000000     
  0.50000000000000000     
  0.50000000000000000     
  0.50000000000000000     
  0.50000000000000000     
  0.50000000000000000     
  0.50000000000000000     
  0.50000000000000000     
  0.50000000000000000     
  0.50000000000000000     
  0.50000000000000000     
  0.50000000000000000     
  0.50000000000000000     
  0.50000000000000000     
  0.50000000000000000     
  0.50000000000000000     
  0.50000000000000000     
  0.50000000000000000     
  0.50000000000000000     
  0.50000000000000000     
  0.50000000000000000     
  0.50000000000000000     
  0.50000000000000000     
  0.50000000000000000     
  0.50000000000000000     
  0.50000000000000000     
  0.50000000000000000     
  0.50000000000000000     
  0.50000000000000000     
  0.50000000000000000     
  0.50000000000000000     
  0.50000000000000000     
  0.50000000000000000     
  0.50000000000000000     
  0.50000000000000000     
  0.50000000000000000     
  0.50000000000000000     
  0.50000000000000000     
  0.50000000000000000     
  0.50000000000000000     
  0.50000000000000000     
  0.50000000000000000     
  0.50000000000000000     
  0.50000000000000000     
  0.50000000000000000     
  0.50000000000000000     
  0.50000000000000000     
  0.50000000000000000     
  0.50000000000000000     
  0.50000000000000000     
  0.50000000000000000     
  0.50000000000000000     
  0.50000000000000000     
  0.50000000000000000     
  0.50000000000000000     
  0.50000000000000000     
  0.50000000000000000     
  0.50000000000000000     
  0.50000000000000000     
  0.50000000000000000     
  0.50000000000000000     
  0.50000000000000000     
  0.50000000000000000     
  0.50000000000000000     
  0.50000000000000000     
  0.50000000000000000     
  0.50000000000000000     
  0.50000000000000000     
  0.50000000000000000     
  0.50000000000000000     
  0.50000000000000000     
  0.50000000000000000     
  0.50000000000000000     
  0.50000000000000000     
  0.50000000000000000     
  0.50000000000000000     
  0.50000000000000000     
  0.50000000000000000     
  0.50000000000000000     
  0.50000000000000000     
  0.50000000000000000     
  0.50000000000000000     
  0.50000000000000000     
  0.50000000000000000     
  0.50000000000000000     
  0.50000000000000000     
  0.50000000000000000     
  0.50000000000000000     
  0.50000000000000000     
  0.50000000000000000     
  0.50000000000000000     
  0.50000000000000000     
  0.50000000000000000     
  0.50000000000000000     
  0.50000000000000000     
  0.50000000000000000     
  0.50000000000000000     
  0.50000000000000000     
  0.50000000000000000     
  0.50000000000000000     
  0.50000000000000000     
  0.50000000000000000     
  0.50000000000000000     
  0.50000000000000000     
  0.50000000000000000     
  0.50000000000000000     
  0.50000000000000000     
  0.50000000000000000     
  0.50000000000000000     
  0.50000000000000000     
  0.50000000000000000     
  0.50000000000000000     
  0.50000000000000000     
  0.50000000000000000     
  0.50000000000000000     
  0.50000000000000000     
  0.50000000000000000     
  0.50000000000000000     
  0.50000000000000000     
  0.50000000000000000     
  0.50000000000000000     
  0.50000000000000000     
  0.50000000000000000     
  0.50000000000000000     
  0.50000000000000000     
  0.50000000000000000     
  0.50000000000000000     
  0.50000000000000000     
  0.50000000000000000     
  0.50000000000000000     
  0.50000000000000000     
  0.50000000000000000     
  0.50000000000000000     
  0.50000000000000000     
  0.50000000000000000     
  0.50000000000000000     
  0.50000000000000000     
  0.50000000000000000     
  0.50000000000000000     
  0.50000000000000000     
  0.50000000000000000     
  0.50000000000000000     
  0.50000000000000000     
  0.50000000000000000     
  0.50000000000000000     
  0.50000000000000000     
  0.50000000000000000     
  0.50000000000000000     
  0.50000000000000000     
  0.50000000000000000     
  0.50000000000000000     
  0.50000000000000000     
  0.50000000000000000     
  0.50000000000000000     
  0.50000000000000000     
  0.50000000000000000     
  0.50000000000000000     
  0.50000000000000000     
  0.50000000000000000     
  0.50000000000000000     
  0.50000000000000000     
  0.50000000000000000     
  0.50000000000000000     
  0.50000000000000000     
  0.50000000000000000     
  0.50000000000000000     
  0.50000000000000000     
  0.50000000000000000     
  0.50000000000000000     
  0.50000000000000000     
  0.50000000000000000     
  0.50000000000000000     
  0.50000000000000000     
  0.50000000000000000     
  0.50000000000000000     
  0.50000000000000000     
  0.50000000000000000     
  0.50000000000000000     
  0.50000000000000000     
  0.50000000000000000     
  0.50000000000000000     
  0.50000000000000000     
  0.50000000000000000     
  0.50000000000000000     
  0.50000000000000000     
  0.50000000000000000     
  0.50000000000000000     
  0.50000000000000000     
  0.50000000000000000     
  0.50000000000000000     
  0.50000000000000000     
  0.50000000000000000     
  0.50000000000000000     
  0.50000000000000000     
  0.50000000000000000     
  0.50000000000000000     
  0.50000000000000000     
  0.50000000000000000     
  0.50000000000000000     
  0.50000000000000000     
  0.50000000000000000     
  0.50000000000000000     
  0.50000000000000000     
  0.50000000000000000     
  0.50000000000000000     
  0.50000000000000000     
  0.50000000000000000     
  0.50000000000000000     
  0.50000000000000000     
  0.50000000000000000     
  0.50000000000000000     
  0.50000000000000000     
  0.50000000000000000     
  0.50000000000000000     
  0.50000000000000000     
  0.50000000000000000     
  0.50000000000000000     
  0.50000000000000000     
  0.50000000000000000     
  0.50000000000000000     
  0.50000000000000000     
  0.50000000000000000     
  0.50000000000000000     
  0.50000000000000000     
  0.50000000000000000     
  0.50000000000000000     
  0.50000000000000000     
  0.50000000000000000     
  0.50000000000000000     
  0.50000000000000000     
  0.50000000000000000     
  0.50000000000000000     
  0.50000000000000000     
  0.50000000000000000     
  0.50000000000000000     
  0.50000000000000000     
  0.50000000000000000     
  0.50000000000000000     
  0.50000000000000000     
  0.50000000000000000     
  0.50000000000000000     
  0.50000000000000000     
  0.50000000000000000     
  0.50000000000000000     
  0.50000000000000000     
  0.50000000000000000     
  0.50000000000000000     
  0.50000000000000000     
  0.50000000000000000     
  0.50000000000000000     
  0.50000000000000000     
  0.50000000000000000     
  0.50000000000000000     
  0.50000000000000000     
  0.50000000000000000     
  0.50000000000000000     
  0.50000000000000000     
  0.50000000000000000     
  0.50000000000000000     
  0.50000000000000000     
  0.50000000000000000     
  0.50000000000000000     
  0.50000000000000000     
  0.50000000000000000     
  0.50000000000000000     
  0.50000000000000000     
  0.50000000000000000     
  0.50000000000000000     
  0.50000000000000000     
  0.50000000000000000     
  0.50000000000000000     
  0.50000000000000000     
  0.50000000000000000     
  0.50000000000000000     
  0.50000000000000000     
  0.50000000000000000     
  0.50000000000000000     
  0.50000000000000000     
  0.50000000000000000     
  0.50000000000000000     
  0.50000000000000000     
  0.50000000000000000     
  0.50000000000000000     
  0.50000000000000000     
  0.50000000000000000     
  0.50000000000000000     
  0.50000000000000000     
  0.50000000000000000     
  0.50000000000000000     
  0.50000000000000000     
  0.50000000000000000     
  0.50000000000000000     
  0.50000000000000000     
  0.50000000000000000     
  0.50000000000000000     
  0.50000000000000000     
  0.50000000000000000     
  0.50000000000000000     
  0.50000000000000000     
  0.50000000000000000     
  0.50000000000000000     
  0.50000000000000000     
  0.50000000000000000     
  0.50000000000000000     
  0.50000000000000000     
  0.50000000000000000     
  0.50000000000000000     
  0.50000000000000000     
  0.50000000000000000     
  0.50000000000000000     
  0.50000000000000000     
  0.50000000000000000     
  0.50000000000000000     
  0.50000000000000000     
  0.50000000000000000     
  0.50000000000000000     
  0.50000000000000000     
  0.50000000000000000     
  0.50000000000000000     
  0.50000000000000000     
  0.50000000000000000     
  0.50000000000000000     
  0.50000000000000000     
  0.50000000000000000     
  0.50000000000000000     
  0.50000000000000000     
  0.50000000000000000     
  0.50000000000000000     
  0.50000000000000000     
  0.50000000000000000     
  0.50000000000000000     
  0.50000000000000000     
  0.50000000000000000     
  0.50000000000000000     
  0.50000000000000000     
  0.50000000000000000     
  0.50000000000000000     
  0.50000000000000000     
  0.50000000000000000     
  0.50000000000000000     
  0.50000000000000000     
  0.50000000000000000     
  0.50000000000000000     
  0.50000000000000000     
  0.50000000000000000     
  0.50000000000000000     
  0.50000000000000000     
  0.50000000000000000     
  0.50000000000000000     
  0.50000000000000000     
  0.50000000000000000     
  0.50000000000000000     
  0.50000000000000000     
  0.50000000000000000     
  0.50000000000000000     
  0.50000000000000000     
  0.50000000000000000     
  0.50000000000000000     
  0.50000000000000000     
  0.50000000000000000     
  0.50000000000000000     
  0.50000000000000000     
  0.50000000000000000     
  0.50000000000000000     
  0.50000000000000000     
  0.50000000000000000     
  0.50000000000000000     
  0.50000000000000000     
  0.50000000000000000     
  0.50000000000000000     
  0.50000000000000000     
  0.50000000000000000     
  0.50000000000000000     
  0.50000000000000000     
  0.50000000000000000     
  0.50000000000000000     
  0.50000000000000000     
  0.50000000000000000     
  0.50000000000000000     
  0.50000000000000000     
  0.50000000000000000     
  0.50000000000000000     
  0.50000000000000000     
  0.50000000000000000     
  0.50000000000000000     
  0.50000000000000000     
  0.50000000000000000     
  0.50000000000000000     
  0.50000000000000000     
  0.50000000000000000     
  0.50000000000000000     
  0.50000000000000000     
  0.50000000000000000     
  0.50000000000000000     
  0.50000000000000000     
  0.50000000000000000     
  0.50000000000000000     
  0.50000000000000000     
  0.50000000000000000     
  0.50000000000000000     
  0.50000000000000000     
  0.50000000000000000     
  0.50000000000000000     
  0.50000000000000000     
  0.50000000000000000     
  0.50000000000000000     
  0.50000000000000000     
  0.50000000000000000     
  0.50000000000000000     
  0.50000000000000000     
  0.50000000000000000     
  0.50000000000000000     
  0.50000000000000000     
  0.50000000000000000     
  0.50000000000000000     
  0.50000000000000000     
  0.50000000000000000     
