# vtk DataFile Version 5.1
Data.vtk
ASCII
DATASET UNSTRUCTURED_GRID
 
POINTS 500 float
   6.3834989219885712       -6.9857904171238214       0.75318704782570278     
   4.4276349351558757       -7.1501145522473593       -1.3899062072791477     
   6.4339584953019848       -3.2178815457489631       -1.7076171640723439     
  -1.4207153933486951       -8.2982038839884691       -1.3208947062050946     
   2.5437176243366317       -8.9267107780973891       -2.0187356099233380     
   5.4459448666135737       -4.9937357526478134       -1.4645828874783071     
   6.0862947177403797       -5.1355196824086873        3.0236927464762351     
   2.3773396768794703       -7.3825331591349750       0.52404567462363139     
   3.9870773005785929       -7.6828807764364067       -3.9137453702476566     
   8.8707666363739950       -2.9034114330910685       -1.6556127189214074     
   2.5657507608000176       -8.6424795162579215       -2.9954374117684961     
   2.3482668293893445       -5.6064357251545083       -6.1070385279140345     
   3.0157739402490416       -7.0898736956128063        3.8084686293403074     
   7.3565190494463311       -3.9762522327273495       -1.9382146879178908     
   2.0135594680292592       -8.2581705345906400       0.20641090566963524     
   2.9067170422893103       -6.1174678372813229       -2.5985778940837920     
  0.62804442717337738       -8.7050523010973109       -3.7516169850172423     
  0.73596258625960764       -9.3828746197316519       -1.2884286514575320     
   4.3886294754239055       -8.0072283371632071        2.6224705408234921     
  -2.4418607263543555       -8.5379288599148833       -3.3750928594804424     
   2.2520623095546184       -7.2110588422166799       -1.2249514569003148     
   8.5805219744944150       -8.1805799012225830E-002 -0.13602562059914930     
   5.0126610622361554       -4.4845203305602119        6.6768272754427658     
   1.8211290221546648       -5.8337333714086306        5.9700527075536005     
   7.0502885628628258       -3.8224434267730314       -2.9427659343230999     
   7.4513529881349161       -3.1417496531202160      -0.32731675636073854     
   5.5019962469136789       -6.3190056021524992        1.9564661997640926     
   4.7937753185718384       -4.4042173168706196      -0.88875212395733816     
   5.6381894008573088       -5.9754478346261157       -4.7482540196834622     
  0.18553812682463738       -7.1079357962259149        2.9921003771949586     
  -3.5955450275886349       -8.3281271681113473       -1.0791699986996275     
   5.2193413019787975       -7.4565923148802424        2.7043433975007991     
   6.1075090878848126       -4.2904457393438671       -5.8586828495753087     
   7.4018326203144840       -4.0810478871732494      -0.68691282039842250     
   7.7347914429749896       -5.2657785503284842       -1.1701836864375426     
   2.3222511617281940       -5.3922247861145207       -3.1660377274994276     
  -3.6043699094138302       -8.3004342022545217       -1.9495685865597991E-002
   2.9559147164027055       -7.6485812297511782        4.7974309411957163     
   4.6465104468832621       -5.7513639594807477        4.4381879270475153     
   5.3268027485269140       -6.9998752598621277        3.5880267682889992     
   5.6843172758964382       -7.6039353652581960       0.34188077441034576     
  0.24462808026718988       -9.1872990992707386        2.4049496251410982     
   7.8834061126394808       -5.1606162247470166        1.2083860294955424     
 -0.70352078410451380       -8.1661486211635630        4.7929698829989951     
   2.0962977907659690       -7.4142762528535933       -5.5554924835054713     
   7.0165787737562404       -5.8385684781027605       -2.6317487985671471     
   5.0035809780134501       -4.2012040345058708        4.9228766906931707     
   1.5974745955793699       -5.9782452962392458       -2.7798809538034788     
   2.9895582780346657       -7.0797767701545267       -4.0203617588123981     
   9.3958071612228320       -1.2734379151100366      -0.50695907190946110     
  0.98677523746216311       -6.7310298997297338       -3.4411282423945346     
   5.7293020674558859       -6.4970097360101962       -3.9001938964900584     
   2.9356563900888850       -7.2465253287678273      -0.29438067418081765     
   9.4214419765987412      -0.57161815777472236       0.23274343357881708     
   6.9057443078139036       -3.4595921575163779        3.5889802458123055     
  -1.3928977181202946       -8.1773353477508053       -4.4410170361540127     
   9.2408956380182588       -2.1618497957569263       -4.9824678810443723E-002
   7.8561749548208173       -2.5198141678734878       -4.5745071756715285     
   2.4705146529053192       -5.8916624075063941       -4.4865493737947091     
   3.6831403399000875       -7.4888837772729389        2.1016158259315416     
   4.2722892183418768       -6.3841430038315350       0.46491241596711252     
  0.77008107613419741       -5.7601253108074157       -3.5463964820764007     
   3.4370502267810776       -5.7538684446043851        6.6766952552300047     
   2.4575335083312551       -6.3003089739252056       -1.6997782183292083     
   1.8843143787306189       -7.9935453486804109       -4.7681258693821560     
   3.9387080721503298       -6.6330443922436215       -5.5439579654181568     
   6.4797892431038973       -4.5174870481227289       -3.3885445581198854     
  -2.2816872608724674       -9.2009572909689936       0.62179353037989959     
   8.9781829902717014       -2.9990277421976201      -0.65654367917511125     
   1.7327449616724975       -8.3038708972439856        1.6714314163413353     
 -0.18203610437458698       -8.4710705933284505       -4.2955471815146087     
   5.2155536468380301       -5.1991294291874102        5.9983140723360098     
 -0.56465358004393329       -9.3472599793297828        1.5995231712773794     
   2.9686864877127963       -6.8333804435277701        2.3482527917657898     
   5.2348917255407432       -3.1882374793883130        4.6032321730954937     
   8.8651560692476394       -1.9823187564733193       -2.0492580606144166     
   1.8307027186996718       -7.0091862331186556        6.1432872328915131     
  0.38991173780858557       -7.7474054051043169       0.26989151296858144     
   5.5908195694228198       -4.9482967972101743       0.36856611287091579     
  -2.4351627308382118       -8.0621209908083529       -1.9482161922681884     
   6.9984730697592719       -6.4072009073018066       0.21714977477410835     
   6.9524763882436700       -6.4248885062152601      -0.79290527327939586     
   4.6047096044107141       -5.0985341845522321        2.5723643474309479     
   8.6895171006349816       -2.8946192816980489        2.2116527675327364     
   2.1704388679550846       -6.3536492737511949        3.8717670260732322     
   2.7027098480087117       -8.0853979635450841        2.1242623047213680     
   2.7930396943970184       -7.1270479982607515        1.3969497108749140     
   1.4520164600858085       -6.3206681158307765       -1.8344541041849143     
   1.4990225692138734       -6.3437277096730309        6.8699163340251692     
   8.1833907575745286       -4.5229848709049136       -1.6787601801386010     
   4.8987354289469023       -5.1754536275393672       -4.4613933361611871     
   4.3716730918468594       -8.1623239698090924       -2.1237568195785910     
   1.8293112543307215       -6.1801081818534698      -0.91821160457396778     
  0.78362982846536988       -7.1614411744275506       -2.5615605973183784     
   8.6916462988364316       -2.7760028604599754       -2.6381395485188586     
   6.2094014790989469       -5.0028178617166841       -5.1638222450491931     
   1.7209086472037158       -5.4377788183268567        4.0645422928082864     
   8.0291038062236364       -5.0707351259532976       0.21467144909101271     
   6.7583461244879830       -6.3862814699700401        1.8052466398645164     
   8.3279263135909645       -3.5715769130599817        2.8528732617565908     
  -1.7851965229548039       -8.9831669212118097       -2.5238723808321173     
   1.3077461425388850       -6.1471343986589346       -4.6607852150315550     
   7.0696829331504336       -2.9604941457033860       -3.5594879843802452     
   5.0320890973033352       -8.0530454607697521      -0.27871921900002239     
   6.9318157748842255       -2.4590133991026111        3.4488346484540369     
   3.5137989634135232       -7.7815608522253168        1.1601300778865216     
   7.9084706753024854       -3.3683525772751350       -4.0437216252294244     
   1.3381855892923533       -8.2302609710281445       -2.2583131442139122     
  -2.6412327284125645       -7.8561323596310730        1.6752935044219714     
  0.99224400517601397       -8.4190089695908732       -1.2070462783097062     
   5.9435835114787938       -4.8127707580850192      -0.61585232476177665     
   7.7383980351644199       -3.3259486091076624       -1.2715180792858258     
 -0.13943538526274049       -7.9733318375454632       -5.1627817423374722     
   1.7110731981610270       -9.2176954582306454       -1.5143179096546893     
   1.3495504594100542       -6.2060228721602435       -3.3435779835596460E-003
   3.4598937817604387       -8.5611944039423342       -2.2322025002064421     
  0.90065064214991808       -8.2508727868162968       -4.6216234812605324     
   3.4933442464160764       -4.5943421160571436       -5.0113331842041378     
   8.7581474688788052       -1.8612774304495787       -3.0408919164748363     
   6.3967538137512117       -5.5575892630381070       0.27101915154802186     
   9.1961462933181171       -2.1075359815105172       -1.0564435748593435     
  0.21718630246378642       -8.6021045509083045       0.82276072464637195     
  -1.2103470455073277       -7.5433904923469397        3.8747838974331108     
   7.2169018593811396       -3.9112960779743031        2.4475965219248152     
   3.1002570916844721       -5.8982904672424485        2.0190071232350473     
[...]
POINT_DATA  500
SCALARS radius float
LOOKUP_TABLE default
  0.50000000000000000     
  0.50000000000000000     
  0.50000000000000000     
  0.50000000000000000     
  0.50000000000000000     
  0.50000000000000000     
  0.50000000000000000     
  0.50000000000000000     
  0.50000000000000000     
  0.50000000000000000     
  0.50000000000000000     
  0.50000000000000000     
  0.50000000000000000     
  0.50000000000000000     
  0.50000000000000000     
  0.50000000000000000     
  0.50000000000000000     
  0.50000000000000000     
  0.50000000000000000     
  0.50000000000000000     
  0.50000000000000000     
  0.50000000000000000     
  0.50000000000000000     
  0.50000000000000000     
  0.50000000000000000     
  0.50000000000000000     
  0.50000000000000000     
  0.50000000000000000     
  0.50000000000000000     
  0.50000000000000000     
  0.50000000000000000     
  0.50000000000000000     
  0.50000000000000000     
  0.50000000000000000     
  0.50000000000000000     
  0.50000000000000000     
  0.50000000000000000     
  0.50000000000000000     
  0.50000000000000000     
  0.50000000000000000     
  0.50000000000000000     
  0.50000000000000000     
  0.50000000000000000     
  0.50000000000000000     
  0.50000000000000000     
  0.50000000000000000     
  0.50000000000000000     
  0.50000000000000000     
  0.50000000000000000     
  0.50000000000000000     
  0.50000000000000000     
  0.50000000000000000     
  0.50000000000000000     
  0.50000000000000000     
  0.50000000000000000     
  0.50000000000000000     
  0.50000000000000000     
  0.50000000000000000     
  0.50000000000000000     
  0.50000000000000000     
  0.50000000000000000     
  0.50000000000000000     
  0.50000000000000000     
  0.50000000000000000     
  0.50000000000000000     
  0.50000000000000000     
  0.50000000000000000     
  0.50000000000000000     
  0.50000000000000000     
  0.50000000000000000     
  0.50000000000000000     
  0.50000000000000000     
  0.50000000000000000     
  0.50000000000000000     
  0.50000000000000000     
  0.50000000000000000     
  0.50000000000000000     
  0.50000000000000000     
  0.50000000000000000     
  0.50000000000000000     
  0.50000000000000000     
  0.50000000000000000     
  0.50000000000000000     
  0.50000000000000000     
  0.50000000000000000     
  0.50000000000000000     
  0.50000000000000000     
  0.50000000000000000     
  0.50000000000000000     
  0.50000000000000000     
  0.50000000000000000     
  0.50000000000000000     
  0.50000000000000000     
  0.50000000000000000     
  0.50000000000000000     
  0.50000000000000000     
  0.50000000000000000     
  0.50000000000000000     
  0.50000000000000000     
  0.50000000000000000     
  0.50000000000000000     
  0.50000000000000000     
  0.50000000000000000     
  0.50000000000000000     
  0.50000000000000000     
  0.50000000000000000     
  0.50000000000000000     
  0.50000000000000000     
  0.50000000000000000     
  0.50000000000000000     
  0.50000000000000000     
  0.50000000000000000     
  0.50000000000000000     
  0.50000000000000000     
  0.50000000000000000     
  0.50000000000000000     
  0.50000000000000000     
  0.50000000000000000     
  0.50000000000000000     
  0.50000000000000000     
  0.50000000000000000     
  0.50000000000000000     
  0.50000000000000000     
  0.50000000000000000     
  0.50000000000000000     
  0.50000000000000000     
  0.50000000000000000     
  0.50000000000000000     
  0.50000000000000000     
  0.50000000000000000     
  0.50000000000000000     
  0.50000000000000000     
  0.50000000000000000     
  0.50000000000000000     
  0.50000000000000000     
  0.50000000000000000     
  0.50000000000000000     
  0.50000000000000000     
  0.50000000000000000     
  0.50000000000000000     
  0.50000000000000000     
  0.50000000000000000     
  0.50000000000000000     
  0.50000000000000000     
  0.50000000000000000     
  0.50000000000000000     
  0.50000000000000000     
  0.50000000000000000     
  0.50000000000000000     
  0.50000000000000000     
  0.50000000000000000     
  0.50000000000000000     
  0.50000000000000000     
  0.50000000000000000     
  0.50000000000000000     
  0.50000000000000000     
  0.50000000000000000     
  0.50000000000000000     
  0.50000000000000000     
  0.50000000000000000     
  0.50000000000000000     
  0.50000000000000000     
  0.50000000000000000     
  0.50000000000000000     
  0.50000000000000000     
  0.50000000000000000     
  0.50000000000000000     
  0.50000000000000000     
  0.50000000000000000     
  0.50000000000000000     
  0.50000000000000000     
  0.50000000000000000     
  0.50000000000000000     
  0.50000000000000000     
  0.50000000000000000     
  0.50000000000000000     
  0.50000000000000000     
  0.50000000000000000     
  0.50000000000000000     
  0.50000000000000000     
  0.50000000000000000     
  0.50000000000000000     
  0.50000000000000000     
  0.50000000000000000     
  0.50000000000000000     
  0.50000000000000000     
  0.50000000000000000     
  0.50000000000000000     
  0.50000000000000000     
  0.50000000000000000     
  0.50000000000000000     
  0.50000000000000000     
  0.50000000000000000     
  0.50000000000000000     
  0.50000000000000000     
  0.50000000000000000     
  0.50000000000000000     
  0.50000000000000000     
  0.50000000000000000     
  0.50000000000000000     
  0.50000000000000000     
  0.50000000000000000     
  0.50000000000000000     
  0.50000000000000000     
  0.50000000000000000     
  0.50000000000000000     
  0.50000000000000000     
  0.50000000000000000     
  0.50000000000000000     
  0.50000000000000000     
  0.50000000000000000     
  0.50000000000000000     
  0.50000000000000000     
  0.50000000000000000     
  0.50000000000000000     
  0.50000000000000000     
  0.50000000000000000     
  0.50000000000000000     
  0.50000000000000000     
  0.50000000000000000     
  0.50000000000000000     
  0.50000000000000000     
  0.50000000000000000     
  0.50000000000000000     
  0.50000000000000000     
  0.50000000000000000     
  0.50000000000000000     
  0.50000000000000000     
  0.50000000000000000     
  0.50000000000000000     
  0.50000000000000000     
  0.50000000000000000     
  0.50000000000000000     
  0.50000000000000000     
  0.50000000000000000     
  0.50000000000000000     
  0.50000000000000000     
  0.50000000000000000     
  0.50000000000000000     
  0.50000000000000000     
  0.50000000000000000     
  0.50000000000000000     
  0.50000000000000000     
  0.50000000000000000     
  0.50000000000000000     
  0.50000000000000000     
  0.50000000000000000     
  0.50000000000000000     
  0.50000000000000000     
  0.50000000000000000     
  0.50000000000000000     
  0.50000000000000000     
  0.50000000000000000     
  0.50000000000000000     
  0.50000000000000000     
  0.50000000000000000     
  0.50000000000000000     
  0.50000000000000000     
  0.50000000000000000     
  0.50000000000000000     
  0.50000000000000000     
  0.50000000000000000     
  0.50000000000000000     
  0.50000000000000000     
  0.50000000000000000     
  0.50000000000000000     
  0.50000000000000000     
  0.50000000000000000     
  0.50000000000000000     
  0.50000000000000000     
  0.50000000000000000     
  0.50000000000000000     
  0.50000000000000000     
  0.50000000000000000     
  0.50000000000000000     
  0.50000000000000000     
  0.50000000000000000     
  0.50000000000000000     
  0.50000000000000000     
  0.50000000000000000     
  0.50000000000000000     
  0.50000000000000000     
  0.50000000000000000     
  0.50000000000000000     
  0.50000000000000000     
  0.50000000000000000     
  0.50000000000000000     
  0.50000000000000000     
  0.50000000000000000     
  0.50000000000000000     
  0.50000000000000000     
  0.50000000000000000     
  0.50000000000000000     
  0.50000000000000000     
  0.50000000000000000     
  0.50000000000000000     
  0.50000000000000000     
  0.50000000000000000     
  0.50000000000000000     
  0.50000000000000000     
  0.50000000000000000     
  0.50000000000000000     
  0.50000000000000000     
  0.50000000000000000     
  0.50000000000000000     
  0.50000000000000000     
  0.50000000000000000     
  0.50000000000000000     
  0.50000000000000000     
  0.50000000000000000     
  0.50000000000000000     
  0.50000000000000000     
  0.50000000000000000     
  0.50000000000000000     
  0.50000000000000000     
  0.50000000000000000     
  0.50000000000000000     
  0.50000000000000000     
  0.50000000000000000     
  0.50000000000000000     
  0.50000000000000000     
  0.50000000000000000     
  0.50000000000000000     
  0.50000000000000000     
  0.50000000000000000     
  0.50000000000000000     
  0.50000000000000000     
  0.50000000000000000     
  0.50000000000000000     
  0.50000000000000000     
  0.50000000000000000     
  0.50000000000000000     
  0.50000000000000000     
  0.50000000000000000     
  0.50000000000000000     
  0.50000000000000000     
  0.50000000000000000     
  0.50000000000000000     
  0.50000000000000000     
  0.50000000000000000     
  0.50000000000000000     
  0.50000000000000000     
  0.50000000000000000     
  0.50000000000000000     
  0.50000000000000000     
  0.50000000000000000     
  0.50000000000000000     
  0.50000000000000000     
  0.50000000000000000     
  0.50000000000000000     
  0.50000000000000000     
  0.50000000000000000     
  0.50000000000000000     
  0.50000000000000000     
  0.50000000000000000     
  0.50000000000000000     
  0.50000000000000000     
  0.50000000000000000     
  0.50000000000000000     
  0.50000000000000000     
  0.50000000000000000     
  0.50000000000000000     
  0.50000000000000000     
  0.50000000000000000     
  0.50000000000000000     
  0.50000000000000000     
  0.50000000000000000     
  0.50000000000000000     
  0.50000000000000000     
  0.50000000000000000     
  0.50000000000000000     
  0.50000000000000000     
  0.50000000000000000     
  0.50000000000000000     
  0.50000000000000000     
  0.50000000000000000     
  0.50000000000000000     
  0.50000000000000000     
  0.50000000000000000     
  0.50000000000000000     
  0.50000000000000000     
  0.50000000000000000     
  0.50000000000000000     
  0.50000000000000000     
  0.50000000000000000     
  0.50000000000000000     
  0.50000000000000000     
  0.50000000000000000     
  0.50000000000000000     
  0.50000000000000000     
  0.50000000000000000     
  0.50000000000000000     
  0.50000000000000000     
  0.50000000000000000     
  0.50000000000000000     
  0.50000000000000000     
  0.50000000000000000     
  0.50000000000000000     
  0.50000000000000000     
  0.50000000000000000     
  0.50000000000000000     
  0.50000000000000000     
  0.50000000000000000     
  0.50000000000000000     
  0.50000000000000000     
  0.50000000000000000     
  0.50000000000000000     
  0.50000000000000000     
  0.50000000000000000     
  0.50000000000000000     
  0.50000000000000000     
  0.50000000000000000     
  0.50000000000000000     
  0.50000000000000000     
  0.50000000000000000     
  0.50000000000000000     
  0.50000000000000000     
  0.50000000000000000     
  0.50000000000000000     
  0.50000000000000000     
  0.50000000000000000     
  0.50000000000000000     
  0.50000000000000000     
  0.50000000000000000     
  0.50000000000000000     
  0.50000000000000000     
  0.50000000000000000     
  0.50000000000000000     
  0.50000000000000000     
  0.50000000000000000     
  0.50000000000000000     
  0.50000000000000000     
  0.50000000000000000     
  0.50000000000000000     
  0.50000000000000000     
  0.50000000000000000     
  0.50000000000000000     
  0.50000000000000000     
  0.50000000000000000     
  0.50000000000000000     
  0.50000000000000000     
  0.50000000000000000     
  0.50000000000000000     
  0.50000000000000000     
  0.50000000000000000     
  0.50000000000000000     
  0.50000000000000000     
  0.50000000000000000     
  0.50000000000000000     
  0.50000000000000000     
  0.50000000000000000     
  0.50000000000000000     
  0.50000000000000000     
  0.50000000000000000     
  0.50000000000000000     
  0.50000000000000000     
  0.50000000000000000     
  0.50000000000000000     
  0.50000000000000000     
  0.50000000000000000     
  0.50000000000000000     
  0.50000000000000000     
  0.50000000000000000     
  0.50000000000000000     
  0.50000000000000000     
  0.50000000000000000     
  0.50000000000000000     
  0.50000000000000000     
  0.50000000000000000     
  0.50000000000000000     
  0.50000000000000000     
  0.50000000000000000     
  0.50000000000000000     
  0.50000000000000000     
  0.50000000000000000     
  0.50000000000000000     
  0.50000000000000000     
  0.50000000000000000     
  0.50000000000000000     
  0.50000000000000000     
  0.50000000000000000     
  0.50000000000000000     
  0.50000000000000000     
  0.50000000000000000     
  0.50000000000000000     
  0.50000000000000000     
  0.50000000000000000     
  0.50000000000000000     
  0.50000000000000000     
  0.50000000000000000     
  0.50000000000000000     
  0.50000000000000000     
  0.50000000000000000     
  0.50000000000000000     
  0.50000000000000000     
  0.50000000000000000     
  0.50000000000000000     
  0.50000000000000000     
  0.50000000000000000     
  0.50000000000000000     
