# vtk DataFile Version 5.1
Data.vtk
ASCII
DATASET UNSTRUCTURED_GRID
 
POINTS 500 float
   2.4261674417402741       -4.9742024027826641        3.9740222439191899     
   6.9643050175952155       -4.6697525566896534       -1.5401378613655656     
   2.3571235175000691       -6.4809785171017964       -3.5046899554715982     
   2.6884206762967953       -7.9816565684449774       -1.0796616161603123     
   8.2641059862758883        4.4852217922228370E-002  -2.0148559379108373     
   4.5943922370900729       -5.7326625042923292       -2.5791705436614709     
   4.3846450270631649       -5.8982370229174679        4.2613260467823233     
   2.9084275194951594       -7.0504290925668220       0.37907842908504530     
   6.5717634513209884       -2.2860986787590507       -6.4393430203010329     
   1.2377543204613133       -5.9705370010962167       -2.8238067729202716     
   8.3596074931329749       0.11744879017628145       -3.1348125177938440     
   3.9100326893691983       -8.5253824336277582       -1.5098789750003168     
   3.7151041495620993       -7.3339168031027802        2.9841996085594245     
   4.0214334904894766       -5.1458297321451223       -5.4681711678927662     
   5.5608881697228325       -6.5314095141019699       0.63730560069016429     
  -1.8667841116509176       -9.2121935215620532       -1.3780245960381527     
   8.6012818122912567       -1.3748242328660574       -3.7819651952455144     
   9.3920765855299813      -0.64445051786018825       -1.2382735318222333     
   8.4231887221376880      -0.78081065907650871        4.3232203474872852     
   8.4009563142322001       -3.6401156597042128       -2.5217903629255547     
   2.5524223490156670       -7.1066626867234532      -0.60588643899204409     
  -2.7510199714132651E-002  -6.5044398497483105       -1.8528458744849259     
   3.5929238913232338       -7.3863974296176051        4.7714414946317039     
   5.8107781399320535       -5.6859642802982391        4.9139996525555159     
   2.9713074509347286       -6.2057979823258016       -5.2256227092613088     
   2.5083994775481422       -6.1122879844336353       -1.1190162604084071     
   4.7236986351177030       -5.5483878803767919        1.9898671181994836     
  0.62056797801335373       -6.7248489630257051       -1.1218827305404564     
   1.3273609393771517       -7.0529236090171485       -4.6475720036231385     
 -0.62231286306866040       -8.5545701557706710        1.5988651207079629     
   6.4917877779210995       -6.8298217626059383       -1.1275654566369957     
   8.2213330415122918       0.13134082720799389        3.9513156614756038     
   2.8083933864201027       -7.5993094658732199       -4.9051251777872986     
   6.1966461644901489       -3.7160073471693948        4.6096759638806280E-002
   6.9167355912209869       -1.2899694776145678       -6.3664872788978908     
  -1.6506921892965287       -9.0496160761130717       -2.3727426395330888     
   6.9644278088672884       -6.4525193408162611      -0.33130398496193936     
   3.5166380092053791       -5.5374257508673317        6.8718286987557891     
   1.0382797086615845       -7.4459605633355137        4.4336902771970603     
   5.9682968278856956       -3.5079007086345335        4.8983611428749159     
   4.4010193288743569       -5.2639888087357418       0.36241994677368466     
   9.0581524010786065       -1.2263810805996516        2.5806546244682749     
   3.6553701876401479       -5.1629359473067140        4.3842538106346565     
   7.5678553135474136       -3.9923419743320219        4.1256889799628231     
   6.3207242088785911       -4.7680414581792530       -5.2476631857493024     
   2.3374000719397063       -5.8103401706875033       -2.7608942752800001     
   1.3491189738182141       -9.0351149122263514        2.6060907499309067     
  -2.8829329960742966       -9.0516769706386526        6.2755837980541199E-002
   4.2447869867035921       -6.6452331859885918       -3.2285534666020412     
   3.3832313723950951       -5.1729015758668240       -2.8300988558715119     
  0.65491370521560832       -8.4235584302696331       -1.6020523769086397     
   4.5222231291624917       -4.1498264569395342       -7.2510259484058963     
   2.8461788093366249       -6.2240842236579059      -0.18072892669993965     
   1.7094854543077569       -6.7165235234660088       -1.0852769115889138     
   3.0076952318111418       -8.0001431776077183        4.1473053132533870     
   8.1746143462159271       -3.2833772656493321       -3.4283785165757794     
   8.0915645609574796       -2.5080555989851274        1.2308663861776907     
   3.9827423715026428E-002  -9.0960070753068081       -2.7404739766296351     
 -0.70574149415877263       -7.2930384431974025       -1.9811120451991537     
   4.9686476087896647       -6.1318055482945502        3.4827613687277932     
   3.9173592904324814       -5.9476969290448922        1.5534921138053197     
   3.8724238472739678       -8.3078752046744171       -2.4852634618656437     
   5.0721613149553519       -6.3569378957757960        4.8388651464954107     
 -0.31058421087528115       -8.0023411886738707       -1.2435782090475811     
   6.0282058271894634       -3.0687090964636838       -5.9899178172230378     
   4.7996280324692764       -4.7582292617848667       -6.4993714449781868     
   4.6420950247267978       -5.2420945974345328       -4.5328767075045606     
   8.9232138725773531       -2.9167653143275860       0.13039757713430003     
   1.8855924346961810       -5.8537065609615500       -9.9327800269707306E-002
   4.7048042953168299       -6.6138089984128019        1.7991385253596617     
   8.1543817083717478       -1.9542349722142649       -4.4650852756151451     
   3.1273838471797557       -6.9742044978227566        5.5578675964328870     
   9.1626403758628996       -1.7911987858509990        1.7532463558274018     
   1.5741688717646993       -7.2650786744789428        1.9152181487387272     
  0.67825498369371462       -9.3657046755056115        1.4400072823108003     
  -2.1673054909049667       -7.5652149022964545       -2.4194312304499688     
   5.8247645089416418       -4.3847139549992287        6.0905850973197166     
   1.4164102345247382       -8.2003244509540423       0.21630180095931434     
   1.3408824998448354       -5.7889998608413631      -0.99580151086366075     
   7.0696317771410460       -6.1443347673148700       -1.5705099827162774     
   5.7374721535691187       -4.8483755814496670       -1.3964022723875607     
   6.0192521883459253       -2.3703768263336733       -4.1162864673467965     
   3.0805629783805863       -6.5216373878254545        3.0547834990457461     
   5.8986851342798099       -4.3866202072544134        1.7198047588657028     
   2.3847416334996083       -8.5460388492821018        3.3953421535095241     
   5.2776295195599845       -6.1793812451096608        2.5332103200046121     
   3.0561685466349151       -7.2015594750930463        1.5263211242140007     
  -1.1810468296327832       -9.4118639857553212      -0.51573865206528946     
   5.1255341697558725       -7.1016580322602687        3.6699225348528239     
   5.9687056804867940       -4.0014914991388721       -4.1271002451212011     
   1.3546862973767375       -7.8753305683625863       -3.3816557704564776     
   6.0668768451454786       -2.2503105779991550       -5.3870552982300985     
  0.62016988779259441       -7.5738938118784525       0.23546640247626169     
   2.3187010277111018       -8.0188048871712354       -2.1254147947949313     
  0.13199166701379419       -6.2533106318010514       -2.8126206463172005     
  -1.2100692083649300       -8.5479121602680710       -3.9632853967894839     
  0.63966269967966416       -8.4092663220343251        1.1503603965073264     
   7.3307913006026340       -3.0682370810483781        3.3561166321652136     
   6.3717673501963397       -2.1621718196810860        6.6500291278968273     
 -0.72628056560940069       -7.4867042150628818        4.3947048559800095     
   8.6435361550411702       -2.6749759880099395       -2.6206193488272111     
   6.4311823209667809       -6.6487386496103946       -2.1588495548545263     
   4.4873221070218774       -6.1295959335024470       -4.0971144729637770     
   3.4115668981573122       -4.5859968634570150      -0.18082973871915206     
   3.6398703166467179       -5.7161795936704491        3.5443605884060916     
   6.2953728294837878       -5.5923810223240888        1.9543481735614565     
 -0.94174300713325287       -8.9382079174762126       -3.0776117384842276     
   7.9964295315536171       -4.9203672488262189       -1.0700247759485386     
   8.2341651460928613       -4.6756626301511091       0.75687522432957688     
   4.8504372402433242       -7.0041850662530774      -0.50147023457648410     
   4.8553564022786286       -5.4813414301164265       -1.5673429449855067     
   4.7251472881768199       -4.8036496510978193       -3.1114028219006129     
   7.8929431740117080       -2.9110986005977244       -4.3341637543743810     
   9.1489775224508794       0.30839922948538478       -1.4233520582618022     
  -2.0751147882016383       -8.4698097994609327       -3.3439003652014417E-002
   6.9295701292423324      -0.70954524060868029       -3.9325251606726583     
   7.2955525043183060       -2.5810987385927660       -5.5093595736103582     
 -0.54285931332170023       -8.2632329962062609       -2.1902917403967734     
   2.5793815347505520       -6.7227111413011276       -4.4636094207209736     
   7.7867513865327860       -3.4979149631193147       0.99087282996443138     
   2.7323838038055364       -5.6715746754426304       -4.3627713224774523     
   9.1593916764816843       -2.3465644024378522       0.91732649773856922     
   4.9675409365428882       -7.8840034593721908        1.8480327770327281     
   2.7303904733411635       -6.0408125024877162        5.4640293219571294     
 -0.79372310383491940       -6.7733127932097483       -4.9009662827587251E-002
[...]
POINT_DATA  500
SCALARS radius float
LOOKUP_TABLE default
  0.50000000000000000     
  0.50000000000000000     
  0.50000000000000000     
  0.50000000000000000     
  0.50000000000000000     
  0.50000000000000000     
  0.50000000000000000     
  0.50000000000000000     
  0.50000000000000000     
  0.50000000000000000     
  0.50000000000000000     
  0.50000000000000000     
  0.50000000000000000     
  0.50000000000000000     
  0.50000000000000000     
  0.50000000000000000     
  0.50000000000000000     
  0.50000000000000000     
  0.50000000000000000     
  0.50000000000000000     
  0.50000000000000000     
  0.50000000000000000     
  0.50000000000000000     
  0.50000000000000000     
  0.50000000000000000     
  0.50000000000000000     
  0.50000000000000000     
  0.50000000000000000     
  0.50000000000000000     
  0.50000000000000000     
  0.50000000000000000     
  0.50000000000000000     
  0.50000000000000000     
  0.50000000000000000     
  0.50000000000000000     
  0.50000000000000000     
  0.50000000000000000     
  0.50000000000000000     
  0.50000000000000000     
  0.50000000000000000     
  0.50000000000000000     
  0.50000000000000000     
  0.50000000000000000     
  0.50000000000000000     
  0.50000000000000000     
  0.50000000000000000     
  0.50000000000000000     
  0.50000000000000000     
  0.50000000000000000     
  0.50000000000000000     
  0.50000000000000000     
  0.50000000000000000     
  0.50000000000000000     
  0.50000000000000000     
  0.50000000000000000     
  0.50000000000000000     
  0.50000000000000000     
  0.50000000000000000     
  0.50000000000000000     
  0.50000000000000000     
  0.50000000000000000     
  0.50000000000000000     
  0.50000000000000000     
  0.50000000000000000     
  0.50000000000000000     
  0.50000000000000000     
  0.50000000000000000     
  0.50000000000000000     
  0.50000000000000000     
  0.50000000000000000     
  0.50000000000000000     
  0.50000000000000000     
  0.50000000000000000     
  0.50000000000000000     
  0.50000000000000000     
  0.50000000000000000     
  0.50000000000000000     
  0.50000000000000000     
  0.50000000000000000     
  0.50000000000000000     
  0.50000000000000000     
  0.50000000000000000     
  0.50000000000000000     
  0.50000000000000000     
  0.50000000000000000     
  0.50000000000000000     
  0.50000000000000000     
  0.50000000000000000     
  0.50000000000000000     
  0.50000000000000000     
  0.50000000000000000     
  0.50000000000000000     
  0.50000000000000000     
  0.50000000000000000     
  0.50000000000000000     
  0.50000000000000000     
  0.50000000000000000     
  0.50000000000000000     
  0.50000000000000000     
  0.50000000000000000     
  0.50000000000000000     
  0.50000000000000000     
  0.50000000000000000     
  0.50000000000000000     
  0.50000000000000000     
  0.50000000000000000     
  0.50000000000000000     
  0.50000000000000000     
  0.50000000000000000     
  0.50000000000000000     
  0.50000000000000000     
  0.50000000000000000     
  0.50000000000000000     
  0.50000000000000000     
  0.50000000000000000     
  0.50000000000000000     
  0.50000000000000000     
  0.50000000000000000     
  0.50000000000000000     
  0.50000000000000000     
  0.50000000000000000     
  0.50000000000000000     
  0.50000000000000000     
  0.50000000000000000     
  0.50000000000000000     
  0.50000000000000000     
  0.50000000000000000     
  0.50000000000000000     
  0.50000000000000000     
  0.50000000000000000     
  0.50000000000000000     
  0.50000000000000000     
  0.50000000000000000     
  0.50000000000000000     
  0.50000000000000000     
  0.50000000000000000     
  0.50000000000000000     
  0.50000000000000000     
  0.50000000000000000     
  0.50000000000000000     
  0.50000000000000000     
  0.50000000000000000     
  0.50000000000000000     
  0.50000000000000000     
  0.50000000000000000     
  0.50000000000000000     
  0.50000000000000000     
  0.50000000000000000     
  0.50000000000000000     
  0.50000000000000000     
  0.50000000000000000     
  0.50000000000000000     
  0.50000000000000000     
  0.50000000000000000     
  0.50000000000000000     
  0.50000000000000000     
  0.50000000000000000     
  0.50000000000000000     
  0.50000000000000000     
  0.50000000000000000     
  0.50000000000000000     
  0.50000000000000000     
  0.50000000000000000     
  0.50000000000000000     
  0.50000000000000000     
  0.50000000000000000     
  0.50000000000000000     
  0.50000000000000000     
  0.50000000000000000     
  0.50000000000000000     
  0.50000000000000000     
  0.50000000000000000     
  0.50000000000000000     
  0.50000000000000000     
  0.50000000000000000     
  0.50000000000000000     
  0.50000000000000000     
  0.50000000000000000     
  0.50000000000000000     
  0.50000000000000000     
  0.50000000000000000     
  0.50000000000000000     
  0.50000000000000000     
  0.50000000000000000     
  0.50000000000000000     
  0.50000000000000000     
  0.50000000000000000     
  0.50000000000000000     
  0.50000000000000000     
  0.50000000000000000     
  0.50000000000000000     
  0.50000000000000000     
  0.50000000000000000     
  0.50000000000000000     
  0.50000000000000000     
  0.50000000000000000     
  0.50000000000000000     
  0.50000000000000000     
  0.50000000000000000     
  0.50000000000000000     
  0.50000000000000000     
  0.50000000000000000     
  0.50000000000000000     
  0.50000000000000000     
  0.50000000000000000     
  0.50000000000000000     
  0.50000000000000000     
  0.50000000000000000     
  0.50000000000000000     
  0.50000000000000000     
  0.50000000000000000     
  0.50000000000000000     
  0.50000000000000000     
  0.50000000000000000     
  0.50000000000000000     
  0.50000000000000000     
  0.50000000000000000     
  0.50000000000000000     
  0.50000000000000000     
  0.50000000000000000     
  0.50000000000000000     
  0.50000000000000000     
  0.50000000000000000     
  0.50000000000000000     
  0.50000000000000000     
  0.50000000000000000     
  0.50000000000000000     
  0.50000000000000000     
  0.50000000000000000     
  0.50000000000000000     
  0.50000000000000000     
  0.50000000000000000     
  0.50000000000000000     
  0.50000000000000000     
  0.50000000000000000     
  0.50000000000000000     
  0.50000000000000000     
  0.50000000000000000     
  0.50000000000000000     
  0.50000000000000000     
  0.50000000000000000     
  0.50000000000000000     
  0.50000000000000000     
  0.50000000000000000     
  0.50000000000000000     
  0.50000000000000000     
  0.50000000000000000     
  0.50000000000000000     
  0.50000000000000000     
  0.50000000000000000     
  0.50000000000000000     
  0.50000000000000000     
  0.50000000000000000     
  0.50000000000000000     
  0.50000000000000000     
  0.50000000000000000     
  0.50000000000000000     
  0.50000000000000000     
  0.50000000000000000     
  0.50000000000000000     
  0.50000000000000000     
  0.50000000000000000     
  0.50000000000000000     
  0.50000000000000000     
  0.50000000000000000     
  0.50000000000000000     
  0.50000000000000000     
  0.50000000000000000     
  0.50000000000000000     
  0.50000000000000000     
  0.50000000000000000     
  0.50000000000000000     
  0.50000000000000000     
  0.50000000000000000     
  0.50000000000000000     
  0.50000000000000000     
  0.50000000000000000     
  0.50000000000000000     
  0.50000000000000000     
  0.50000000000000000     
  0.50000000000000000     
  0.50000000000000000     
  0.50000000000000000     
  0.50000000000000000     
  0.50000000000000000     
  0.50000000000000000     
  0.50000000000000000     
  0.50000000000000000     
  0.50000000000000000     
  0.50000000000000000     
  0.50000000000000000     
  0.50000000000000000     
  0.50000000000000000     
  0.50000000000000000     
  0.50000000000000000     
  0.50000000000000000     
  0.50000000000000000     
  0.50000000000000000     
  0.50000000000000000     
  0.50000000000000000     
  0.50000000000000000     
  0.50000000000000000     
  0.50000000000000000     
  0.50000000000000000     
  0.50000000000000000     
  0.50000000000000000     
  0.50000000000000000     
  0.50000000000000000     
  0.50000000000000000     
  0.50000000000000000     
  0.50000000000000000     
  0.50000000000000000     
  0.50000000000000000     
  0.50000000000000000     
  0.50000000000000000     
  0.50000000000000000     
  0.50000000000000000     
  0.50000000000000000     
  0.50000000000000000     
  0.50000000000000000     
  0.50000000000000000     
  0.50000000000000000     
  0.50000000000000000     
  0.50000000000000000     
  0.50000000000000000     
  0.50000000000000000     
  0.50000000000000000     
  0.50000000000000000     
  0.50000000000000000     
  0.50000000000000000     
  0.50000000000000000     
  0.50000000000000000     
  0.50000000000000000     
  0.50000000000000000     
  0.50000000000000000     
  0.50000000000000000     
  0.50000000000000000     
  0.50000000000000000     
  0.50000000000000000     
  0.50000000000000000     
  0.50000000000000000     
  0.50000000000000000     
  0.50000000000000000     
  0.50000000000000000     
  0.50000000000000000     
  0.50000000000000000     
  0.50000000000000000     
  0.50000000000000000     
  0.50000000000000000     
  0.50000000000000000     
  0.50000000000000000     
  0.50000000000000000     
  0.50000000000000000     
  0.50000000000000000     
  0.50000000000000000     
  0.50000000000000000     
  0.50000000000000000     
  0.50000000000000000     
  0.50000000000000000     
  0.50000000000000000     
  0.50000000000000000     
  0.50000000000000000     
  0.50000000000000000     
  0.50000000000000000     
  0.50000000000000000     
  0.50000000000000000     
  0.50000000000000000     
  0.50000000000000000     
  0.50000000000000000     
  0.50000000000000000     
  0.50000000000000000     
  0.50000000000000000     
  0.50000000000000000     
  0.50000000000000000     
  0.50000000000000000     
  0.50000000000000000     
  0.50000000000000000     
  0.50000000000000000     
  0.50000000000000000     
  0.50000000000000000     
  0.50000000000000000     
  0.50000000000000000     
  0.50000000000000000     
  0.50000000000000000     
  0.50000000000000000     
  0.50000000000000000     
  0.50000000000000000     
  0.50000000000000000     
  0.50000000000000000     
  0.50000000000000000     
  0.50000000000000000     
  0.50000000000000000     
  0.50000000000000000     
  0.50000000000000000     
  0.50000000000000000     
  0.50000000000000000     
  0.50000000000000000     
  0.50000000000000000     
  0.50000000000000000     
  0.50000000000000000     
  0.50000000000000000     
  0.50000000000000000     
  0.50000000000000000     
  0.50000000000000000     
  0.50000000000000000     
  0.50000000000000000     
  0.50000000000000000     
  0.50000000000000000     
  0.50000000000000000     
  0.50000000000000000     
  0.50000000000000000     
  0.50000000000000000     
  0.50000000000000000     
  0.50000000000000000     
  0.50000000000000000     
  0.50000000000000000     
  0.50000000000000000     
  0.50000000000000000     
  0.50000000000000000     
  0.50000000000000000     
  0.50000000000000000     
  0.50000000000000000     
  0.50000000000000000     
  0.50000000000000000     
  0.50000000000000000     
  0.50000000000000000     
  0.50000000000000000     
  0.50000000000000000     
  0.50000000000000000     
  0.50000000000000000     
  0.50000000000000000     
  0.50000000000000000     
  0.50000000000000000     
  0.50000000000000000     
  0.50000000000000000     
  0.50000000000000000     
  0.50000000000000000     
  0.50000000000000000     
  0.50000000000000000     
  0.50000000000000000     
  0.50000000000000000     
  0.50000000000000000     
  0.50000000000000000     
  0.50000000000000000     
  0.50000000000000000     
  0.50000000000000000     
  0.50000000000000000     
  0.50000000000000000     
  0.50000000000000000     
  0.50000000000000000     
  0.50000000000000000     
  0.50000000000000000     
  0.50000000000000000     
  0.50000000000000000     
  0.50000000000000000     
  0.50000000000000000     
  0.50000000000000000     
  0.50000000000000000     
  0.50000000000000000     
  0.50000000000000000     
  0.50000000000000000     
  0.50000000000000000     
  0.50000000000000000     
  0.50000000000000000     
  0.50000000000000000     
  0.50000000000000000     
  0.50000000000000000     
  0.50000000000000000     
  0.50000000000000000     
  0.50000000000000000     
  0.50000000000000000     
  0.50000000000000000     
  0.50000000000000000     
  0.50000000000000000     
  0.50000000000000000     
  0.50000000000000000     
  0.50000000000000000     
  0.50000000000000000     
  0.50000000000000000     
  0.50000000000000000     
  0.50000000000000000     
  0.50000000000000000     
  0.50000000000000000     
  0.50000000000000000     
  0.50000000000000000     
  0.50000000000000000     
  0.50000000000000000     
  0.50000000000000000     
  0.50000000000000000     
  0.50000000000000000     
  0.50000000000000000     
  0.50000000000000000     
  0.50000000000000000     
  0.50000000000000000     
  0.50000000000000000     
  0.50000000000000000     
  0.50000000000000000     
  0.50000000000000000     
  0.50000000000000000     
  0.50000000000000000     
