# vtk DataFile Version 5.1
Data.vtk
ASCII
DATASET UNSTRUCTURED_GRID
 
POINTS 500 float
   7.9520352365450044       -3.0753496679737675        4.1113857874390458     
   5.7647345612506165       -4.6202783061140256       -2.2200054063582901     
   1.4376430031419276       -8.9879722616501763       -2.7202652808228054     
   5.9829268428596132       -5.8368230187020398       -1.0839176698638580     
  -1.9751933560097679       -8.7931357854956715       -1.8826364358548964     
   1.6039522590605431       -6.5635356408408034       -2.4226313827572321     
   5.1188520344221544       -6.7184016456789433        4.3483441639045015     
  0.99322764542147490       -7.6577779328424498       0.54908415917507880     
   6.8500790131569929       -6.5729090755532589       0.23411755905220188     
   7.9076088387203720       -4.5394824080378395       -2.6160812953726502     
   1.7171335366874998       -7.0084847952194371       -4.6022385203366980     
   3.9023478097390485       -5.6147166644760063       -1.3193993775668709     
   3.8964802574341548       -6.7277478550635914        3.5814980367179969     
   7.4153847857698905       -5.7377980701269440       -1.4907019950939648     
   7.5438371090769136       -3.3602247048192484        2.2068023004373081     
   7.1195697540913798       -1.6918223311944334      -0.80031575288998380     
   5.2136059726633261       -7.7241428081121759       -1.8459062503392876     
 -0.14274100913425550       -6.9821682461570393      -0.15575843736765116     
   4.1434845563226510       -7.8082071402996078        3.4414016524963036     
   6.0900695939709459       -4.9405479061958903       -3.5024268641388172     
   1.3046629689898501       -7.3402033370423272       -1.1425040172410208     
   8.6745880569952281       -3.4773446303811602       -1.0800769990077146     
   3.2439630551348588       -6.0225847936464030        5.1880790632707372     
  -1.2433664139778078       -8.4881594452712665        4.0807351165697359     
  0.63912118095151860       -8.6386190329073802       -1.8014534158001203     
   2.1551345377251048       -9.2340218148610251      -0.58170941438699919     
   1.4259193588009413       -7.1675370706181134        2.4392355158530319     
  -1.3700622038838728       -9.3991116335888378       0.17456462188913147     
   8.5603251770437527       -1.9297310824788498       -3.2949465760794734     
   4.1377935930639911       -4.6154143217938541        2.3365517906689628     
   1.5575989997003445       -6.4446597568226425      -0.35650638342113750     
   7.9741772522359504       -3.8294326936337044        3.4529536556269500     
   3.4262568731814720       -5.5317699275565753       -6.8647730954493964     
   4.1637265965544801       -8.5285559130060431      -0.42115505732020869     
   6.7454277372377325       -6.1605805089721173       -2.5689424283289992     
   7.2700873902378174       -2.0931531173750200       -2.8997704819636709     
   5.4274095771365003       -5.1713974209392841      -0.44335115316464474     
   4.1716187395872826       -4.9106271798089383        6.9302396177431564     
  0.92072800136329869       -8.4557379712533667        1.4481884381109267     
   5.1891940283520226       -7.5217851853342568        2.5762530047177519     
  -1.0151932231722374       -7.9630425828709752       0.62624983393463207     
   3.1926033640603593       -6.2754499130137393        2.8277647421044909     
   4.2965165949938937       -8.3924511394692107        1.1418015009789213     
   2.5495391212249623       -8.5386389652067933        3.2927535041212801     
   3.8870500220688196       -7.2486285009230311       -4.7427077907044257     
   7.9410817939796852       -4.9102183647297490       -1.6875708845346531     
   2.3678420391159349       -5.4793784243412036        5.7074322936473338     
   9.4745477095628967      -0.36540398441587896       0.30262013737854937     
   5.2229555339818896       -6.2055840428506519       -2.8838625425119782     
   4.3582530186265220       -7.9272936894669712       -2.8992516968066520     
   4.5420022186529803       -7.1809395268960365       -1.2145413457359107     
   7.9056385802648501       -2.9948112991814395       -4.0105541358138321     
  0.66698950200579155       -7.6656878877765440      -0.39635728453286828     
   6.4865385249147716       -6.9032972759272999      -0.69540300377316244     
  -1.6859459997328570       -7.8408709855261147        4.8993348916442274     
  0.36912224761910278       -9.1193026689460517       -2.6357068481880064     
 -0.11436673825152766       -7.3085130738325290        3.5916088416909875     
   5.4700104681603037       -3.6881814095790451       -2.4730486495713269     
   8.9232443389977263       -1.6258277072266372       -1.5634792523793994     
   3.2726863542036835       -6.5785592119786802        4.3506176752764487     
  -2.5330535010498991       -7.9871044449582538        1.6575615947467486     
   3.8584023402532135       -5.0694612295181898       -2.1888096105578985     
  0.66544822827853767       -7.7115154636955943        5.4861887224561769     
   3.6299643047489334       -7.6090967164502699       -1.3378981481247727     
   6.9667082795056778       -5.5395270728144661       -3.3208464062230227     
   5.6251391007049119       -6.3256638534972112       -4.2956744909679916     
  0.56026984487169185       -8.1333784096894259       -2.6619242180037119     
   1.7810505435837192       -6.3821826081711146       0.64792504203275980     
 -0.22092068601839904       -9.4508478948035552      -0.73236266158754626     
   6.5783604429712792       -4.8188750609430526        2.7424774772538165     
   6.2372775778188974       -6.2305251228080616       -3.5063599158104242     
   2.4319360150337106       -7.7512978558692289        4.9247479333021094     
 -0.17926118911132932       -6.8479088535347135       0.84254491195685677     
   1.7536302926704599       -8.3515330761801412       0.90323485151342264     
   4.3114494292886523       -4.3861997947945444        1.3760028709299061     
   9.2466438310059953       -2.0175766296803377      -0.68637921287904757     
   4.8686339050348941       -6.2770723850243453        5.2100879540533480     
   5.1564779792898809       -6.7648722751646408       0.98004415329799355     
   8.3448011246770477       -4.4084412140270350      -0.92244581745516652     
   4.2193003491514336       -5.9229107841130961       -2.5665636728093046     
   3.8007866296180586       -6.6017050527737293       -1.5671290613626523     
 -0.40176041843156196       -8.5243604063696168       -1.2243896913941559     
 -0.47125790797744632       -7.4213975968065755        1.9238523958644604     
  -2.0604423052241327       -8.9287339699664017        2.5012960358773406     
   4.5912742241319666       -4.5887253114586430        4.5762844054524212     
   5.5526463178588079       -5.5758148149785800        3.5594327495891283     
   1.2474279257461802       -7.5125576768030502        1.5089411095607363     
   7.1615317507194503       -2.4751675731347715       -2.4713119700105174E-002
   3.4305876613062178       -5.8395163057130084        3.6957048851042082     
 -0.73291762710199559       -9.1031705722688372       -2.6163234615667275     
   2.8237809749234626       -7.4858160715580953       -3.3890413868012828     
   6.0148008233417141       -6.8254158886674334       -2.7341688142394736     
  -2.5393447660988144       -9.1155101298836048       0.83353451304677328     
   5.7274841498825513       -6.1981713272192014       -2.0022565535798167     
   8.3717606467142556       -4.0245862995420012       -1.8612120301238562     
   7.7761351995313861       -1.2483372868635296       -4.9375930898168940     
   3.6805629257806367       -7.6486295439587595        1.4753364270614364     
   1.8647885142504481       -8.9260911296191257        2.6654937191044961     
   6.5026172164693632       -5.9837725052062272        3.4448524860379908     
   8.4835448253285399       -2.4629984147427457        3.4932641456402567     
   1.8968943035596768       -6.2132036093891889       -4.0201038277622354     
   1.3782324546486944       -6.4656840054787699       -5.3707873721444255     
   2.6773307748295410       -6.9568126580241527       -4.2331169763007299     
   5.6977453542828265       -7.5420451902330861      -0.92675640736548714     
  -1.0420145937544706E-002  -9.1714884317770338        2.4761269203238037     
   6.1074567925221075       -4.7469571911783746        3.6302977578747857     
   6.5404963504423632       -3.0752959572799377       -3.3111178912840185     
  0.65733998703130447       -6.6869184838945168      -0.74897473745785792     
   1.1835648591721228       -6.3621531551948003        4.1150865114843294     
   7.4981764974308405       -4.0778236838360327       0.24902230051931851     
   2.8476394646513929       -6.8886715372323399       -1.6649815973191442     
   1.2009586444697042       -6.2682601130519267       -3.2890447244860450     
   3.4476959670465965       -8.5589494100185224       -2.2600592885224655     
   4.0612301291849606       -6.5751816964810024      -0.58049110900010681     
   9.3334024127365147      -0.14388874088082446      -0.76494984248743458     
  -1.0396021591455331       -8.2826190803146069       -2.1340531768078144     
   3.4439618605913060       -8.2501595063068560       -3.2122749775299333     
   8.7457001788908446       -1.2132992115882051       -2.5448063291122414     
   1.4357381647888101       -7.9417240927387782       -3.1087726109165690     
   1.4550502978315791       -6.8644523230989547        4.9467357348768735     
   6.9325997329440643       -4.6782355853526676       -4.3543155631853185     
  -3.5340606650099566       -8.6830712794131752       0.92750849726512430     
   2.5965923926064738       -6.1948957433693055        1.5092216646968293     
   1.6174110783680455       -7.3368308607356836        5.8142062585567160     
   5.5126319753706055       -7.6902924294960924       0.85028428444280968     
[...]
POINT_DATA  500
SCALARS radius float
LOOKUP_TABLE default
  0.50000000000000000     
  0.50000000000000000     
  0.50000000000000000     
  0.50000000000000000     
  0.50000000000000000     
  0.50000000000000000     
  0.50000000000000000     
  0.50000000000000000     
  0.50000000000000000     
  0.50000000000000000     
  0.50000000000000000     
  0.50000000000000000     
  0.50000000000000000     
  0.50000000000000000     
  0.50000000000000000     
  0.50000000000000000     
  0.50000000000000000     
  0.50000000000000000     
  0.50000000000000000     
  0.50000000000000000     
  0.50000000000000000     
  0.50000000000000000     
  0.50000000000000000     
  0.50000000000000000     
  0.50000000000000000     
  0.50000000000000000     
  0.50000000000000000     
  0.50000000000000000     
  0.50000000000000000     
  0.50000000000000000     
  0.50000000000000000     
  0.50000000000000000     
  0.50000000000000000     
  0.50000000000000000     
  0.50000000000000000     
  0.50000000000000000     
  0.50000000000000000     
  0.50000000000000000     
  0.50000000000000000     
  0.50000000000000000     
  0.50000000000000000     
  0.50000000000000000     
  0.50000000000000000     
  0.50000000000000000     
  0.50000000000000000     
  0.50000000000000000     
  0.50000000000000000     
  0.50000000000000000     
  0.50000000000000000     
  0.50000000000000000     
  0.50000000000000000     
  0.50000000000000000     
  0.50000000000000000     
  0.50000000000000000     
  0.50000000000000000     
  0.50000000000000000     
  0.50000000000000000     
  0.50000000000000000     
  0.50000000000000000     
  0.50000000000000000     
  0.50000000000000000     
  0.50000000000000000     
  0.50000000000000000     
  0.50000000000000000     
  0.50000000000000000     
  0.50000000000000000     
  0.50000000000000000     
  0.50000000000000000     
  0.50000000000000000     
  0.50000000000000000     
  0.50000000000000000     
  0.50000000000000000     
  0.50000000000000000     
  0.50000000000000000     
  0.50000000000000000     
  0.50000000000000000     
  0.50000000000000000     
  0.50000000000000000     
  0.50000000000000000     
  0.50000000000000000     
  0.50000000000000000     
  0.50000000000000000     
  0.50000000000000000     
  0.50000000000000000     
  0.50000000000000000     
  0.50000000000000000     
  0.50000000000000000     
  0.50000000000000000     
  0.50000000000000000     
  0.50000000000000000     
  0.50000000000000000     
  0.50000000000000000     
  0.50000000000000000     
  0.50000000000000000     
  0.50000000000000000     
  0.50000000000000000     
  0.50000000000000000     
  0.50000000000000000     
  0.50000000000000000     
  0.50000000000000000     
  0.50000000000000000     
  0.50000000000000000     
  0.50000000000000000     
  0.50000000000000000     
  0.50000000000000000     
  0.50000000000000000     
  0.50000000000000000     
  0.50000000000000000     
  0.50000000000000000     
  0.50000000000000000     
  0.50000000000000000     
  0.50000000000000000     
  0.50000000000000000     
  0.50000000000000000     
  0.50000000000000000     
  0.50000000000000000     
  0.50000000000000000     
  0.50000000000000000     
  0.50000000000000000     
  0.50000000000000000     
  0.50000000000000000     
  0.50000000000000000     
  0.50000000000000000     
  0.50000000000000000     
  0.50000000000000000     
  0.50000000000000000     
  0.50000000000000000     
  0.50000000000000000     
  0.50000000000000000     
  0.50000000000000000     
  0.50000000000000000     
  0.50000000000000000     
  0.50000000000000000     
  0.50000000000000000     
  0.50000000000000000     
  0.50000000000000000     
  0.50000000000000000     
  0.50000000000000000     
  0.50000000000000000     
  0.50000000000000000     
  0.50000000000000000     
  0.50000000000000000     
  0.50000000000000000     
  0.50000000000000000     
  0.50000000000000000     
  0.50000000000000000     
  0.50000000000000000     
  0.50000000000000000     
  0.50000000000000000     
  0.50000000000000000     
  0.50000000000000000     
  0.50000000000000000     
  0.50000000000000000     
  0.50000000000000000     
  0.50000000000000000     
  0.50000000000000000     
  0.50000000000000000     
  0.50000000000000000     
  0.50000000000000000     
  0.50000000000000000     
  0.50000000000000000     
  0.50000000000000000     
  0.50000000000000000     
  0.50000000000000000     
  0.50000000000000000     
  0.50000000000000000     
  0.50000000000000000     
  0.50000000000000000     
  0.50000000000000000     
  0.50000000000000000     
  0.50000000000000000     
  0.50000000000000000     
  0.50000000000000000     
  0.50000000000000000     
  0.50000000000000000     
  0.50000000000000000     
  0.50000000000000000     
  0.50000000000000000     
  0.50000000000000000     
  0.50000000000000000     
  0.50000000000000000     
  0.50000000000000000     
  0.50000000000000000     
  0.50000000000000000     
  0.50000000000000000     
  0.50000000000000000     
  0.50000000000000000     
  0.50000000000000000     
  0.50000000000000000     
  0.50000000000000000     
  0.50000000000000000     
  0.50000000000000000     
  0.50000000000000000     
  0.50000000000000000     
  0.50000000000000000     
  0.50000000000000000     
  0.50000000000000000     
  0.50000000000000000     
  0.50000000000000000     
  0.50000000000000000     
  0.50000000000000000     
  0.50000000000000000     
  0.50000000000000000     
  0.50000000000000000     
  0.50000000000000000     
  0.50000000000000000     
  0.50000000000000000     
  0.50000000000000000     
  0.50000000000000000     
  0.50000000000000000     
  0.50000000000000000     
  0.50000000000000000     
  0.50000000000000000     
  0.50000000000000000     
  0.50000000000000000     
  0.50000000000000000     
  0.50000000000000000     
  0.50000000000000000     
  0.50000000000000000     
  0.50000000000000000     
  0.50000000000000000     
  0.50000000000000000     
  0.50000000000000000     
  0.50000000000000000     
  0.50000000000000000     
  0.50000000000000000     
  0.50000000000000000     
  0.50000000000000000     
  0.50000000000000000     
  0.50000000000000000     
  0.50000000000000000     
  0.50000000000000000     
  0.50000000000000000     
  0.50000000000000000     
  0.50000000000000000     
  0.50000000000000000     
  0.50000000000000000     
  0.50000000000000000     
  0.50000000000000000     
  0.50000000000000000     
  0.50000000000000000     
  0.50000000000000000     
  0.50000000000000000     
  0.50000000000000000     
  0.50000000000000000     
  0.50000000000000000     
  0.50000000000000000     
  0.50000000000000000     
  0.50000000000000000     
  0.50000000000000000     
  0.50000000000000000     
  0.50000000000000000     
  0.50000000000000000     
  0.50000000000000000     
  0.50000000000000000     
  0.50000000000000000     
  0.50000000000000000     
  0.50000000000000000     
  0.50000000000000000     
  0.50000000000000000     
  0.50000000000000000     
  0.50000000000000000     
  0.50000000000000000     
  0.50000000000000000     
  0.50000000000000000     
  0.50000000000000000     
  0.50000000000000000     
  0.50000000000000000     
  0.50000000000000000     
  0.50000000000000000     
  0.50000000000000000     
  0.50000000000000000     
  0.50000000000000000     
  0.50000000000000000     
  0.50000000000000000     
  0.50000000000000000     
  0.50000000000000000     
  0.50000000000000000     
  0.50000000000000000     
  0.50000000000000000     
  0.50000000000000000     
  0.50000000000000000     
  0.50000000000000000     
  0.50000000000000000     
  0.50000000000000000     
  0.50000000000000000     
  0.50000000000000000     
  0.50000000000000000     
  0.50000000000000000     
  0.50000000000000000     
  0.50000000000000000     
  0.50000000000000000     
  0.50000000000000000     
  0.50000000000000000     
  0.50000000000000000     
  0.50000000000000000     
  0.50000000000000000     
  0.50000000000000000     
  0.50000000000000000     
  0.50000000000000000     
  0.50000000000000000     
  0.50000000000000000     
  0.50000000000000000     
  0.50000000000000000     
  0.50000000000000000     
  0.50000000000000000     
  0.50000000000000000     
  0.50000000000000000     
  0.50000000000000000     
  0.50000000000000000     
  0.50000000000000000     
  0.50000000000000000     
  0.50000000000000000     
  0.50000000000000000     
  0.50000000000000000     
  0.50000000000000000     
  0.50000000000000000     
  0.50000000000000000     
  0.50000000000000000     
  0.50000000000000000     
  0.50000000000000000     
  0.50000000000000000     
  0.50000000000000000     
  0.50000000000000000     
  0.50000000000000000     
  0.50000000000000000     
  0.50000000000000000     
  0.50000000000000000     
  0.50000000000000000     
  0.50000000000000000     
  0.50000000000000000     
  0.50000000000000000     
  0.50000000000000000     
  0.50000000000000000     
  0.50000000000000000     
  0.50000000000000000     
  0.50000000000000000     
  0.50000000000000000     
  0.50000000000000000     
  0.50000000000000000     
  0.50000000000000000     
  0.50000000000000000     
  0.50000000000000000     
  0.50000000000000000     
  0.50000000000000000     
  0.50000000000000000     
  0.50000000000000000     
  0.50000000000000000     
  0.50000000000000000     
  0.50000000000000000     
  0.50000000000000000     
  0.50000000000000000     
  0.50000000000000000     
  0.50000000000000000     
  0.50000000000000000     
  0.50000000000000000     
  0.50000000000000000     
  0.50000000000000000     
  0.50000000000000000     
  0.50000000000000000     
  0.50000000000000000     
  0.50000000000000000     
  0.50000000000000000     
  0.50000000000000000     
  0.50000000000000000     
  0.50000000000000000     
  0.50000000000000000     
  0.50000000000000000     
  0.50000000000000000     
  0.50000000000000000     
  0.50000000000000000     
  0.50000000000000000     
  0.50000000000000000     
  0.50000000000000000     
  0.50000000000000000     
  0.50000000000000000     
  0.50000000000000000     
  0.50000000000000000     
  0.50000000000000000     
  0.50000000000000000     
  0.50000000000000000     
  0.50000000000000000     
  0.50000000000000000     
  0.50000000000000000     
  0.50000000000000000     
  0.50000000000000000     
  0.50000000000000000     
  0.50000000000000000     
  0.50000000000000000     
  0.50000000000000000     
  0.50000000000000000     
  0.50000000000000000     
  0.50000000000000000     
  0.50000000000000000     
  0.50000000000000000     
  0.50000000000000000     
  0.50000000000000000     
  0.50000000000000000     
  0.50000000000000000     
  0.50000000000000000     
  0.50000000000000000     
  0.50000000000000000     
  0.50000000000000000     
  0.50000000000000000     
  0.50000000000000000     
  0.50000000000000000     
  0.50000000000000000     
  0.50000000000000000     
  0.50000000000000000     
  0.50000000000000000     
  0.50000000000000000     
  0.50000000000000000     
  0.50000000000000000     
  0.50000000000000000     
  0.50000000000000000     
  0.50000000000000000     
  0.50000000000000000     
  0.50000000000000000     
  0.50000000000000000     
  0.50000000000000000     
  0.50000000000000000     
  0.50000000000000000     
  0.50000000000000000     
  0.50000000000000000     
  0.50000000000000000     
  0.50000000000000000     
  0.50000000000000000     
  0.50000000000000000     
  0.50000000000000000     
  0.50000000000000000     
  0.50000000000000000     
  0.50000000000000000     
  0.50000000000000000     
  0.50000000000000000     
  0.50000000000000000     
  0.50000000000000000     
  0.50000000000000000     
  0.50000000000000000     
  0.50000000000000000     
  0.50000000000000000     
  0.50000000000000000     
  0.50000000000000000     
  0.50000000000000000     
  0.50000000000000000     
  0.50000000000000000     
  0.50000000000000000     
  0.50000000000000000     
  0.50000000000000000     
  0.50000000000000000     
  0.50000000000000000     
  0.50000000000000000     
  0.50000000000000000     
  0.50000000000000000     
  0.50000000000000000     
  0.50000000000000000     
  0.50000000000000000     
  0.50000000000000000     
  0.50000000000000000     
  0.50000000000000000     
  0.50000000000000000     
  0.50000000000000000     
  0.50000000000000000     
  0.50000000000000000     
  0.50000000000000000     
  0.50000000000000000     
  0.50000000000000000     
  0.50000000000000000     
  0.50000000000000000     
  0.50000000000000000     
  0.50000000000000000     
  0.50000000000000000     
  0.50000000000000000     
  0.50000000000000000     
  0.50000000000000000     
  0.50000000000000000     
  0.50000000000000000     
  0.50000000000000000     
  0.50000000000000000     
  0.50000000000000000     
  0.50000000000000000     
  0.50000000000000000     
  0.50000000000000000     
  0.50000000000000000     
  0.50000000000000000     
  0.50000000000000000     
  0.50000000000000000     
  0.50000000000000000     
  0.50000000000000000     
  0.50000000000000000     
  0.50000000000000000     
  0.50000000000000000     
  0.50000000000000000     
  0.50000000000000000     
  0.50000000000000000     
  0.50000000000000000     
  0.50000000000000000     
  0.50000000000000000     
  0.50000000000000000     
  0.50000000000000000     
  0.50000000000000000     
