# vtk DataFile Version 5.1
Data.vtk
ASCII
DATASET UNSTRUCTURED_GRID
 
POINTS 500 float
  -1.2389076231928517       -6.6690567113499144        2.3850635951237873     
   6.9708667765175099       -6.3573916049394281       -1.1140330682371544     
   8.6345239020023659       -3.8251058918513903        1.0313151522238415     
   2.1728904069316104       -6.8578224760187361       -2.5218009517461542     
  0.84135117079754274       -5.9036909165192410      -0.58392921915838825     
   1.3435336507735756       -6.3323329749922719       -2.0940733514071468     
 -0.39672684552784776       -8.5976564946672500        2.5462717219528135     
   4.3015600838127135       -6.3412857765361901       0.75850852759521736     
   6.0013703868370518       -6.1991236795935611       -1.6207423589809977     
   2.3915331961055282       -8.7225408031880658       -2.9063259515435926     
   1.1628585634984532       -6.4133107756776129       -4.1819457855619833     
   5.5013406947889765       -7.0703004321695104       -3.1268648795580694     
   3.5708615690040548       -7.4814684813841668        2.2745917861420875     
  0.29912182380551150       -7.7378807271330432       0.91619314786548467     
   2.4777344961743322       -6.4699457778523612       -3.4179060023411605     
  -1.3846713184300443       -6.9726026153729572       -1.2287409836153746     
   1.3762924784907102       -5.8235792430437892       -4.9616734046281668     
 -0.86521062005071203       -7.6841370553389412        2.5581594343739682     
   5.2647247904400807       -6.4886978591104914        1.9923463964642736     
 -0.63856846520004162       -7.6294201808075490       -3.9953081096056091     
   5.1335391212675052       -5.8326589888204081       -1.1411888022327374     
  -1.9878871415179435       -8.6700698595379855       -3.3359270461081820     
 -0.82665209541775753       -9.3150627107370756        1.6722941011159842     
   6.2024647680447140       -5.2706397189629017        2.7265539253618654     
  -1.4655433731107816       -7.8669702992770709       -1.6696954498390999     
   3.2061403003878106       -8.6720748962737986       -2.1825755972959637     
   4.0179396404843715       -5.5062778774500956        3.2083509363526095     
   6.9576527931681840       -6.1230932313479762       -2.0862051563869235     
   2.5375519073855504       -6.2928094265947561       -6.6434822939344791     
   1.3235423503362493       -6.0917975814889056        4.9222858906461955     
   8.6627510759799193       -3.0534312258641925       -2.4037651134725393     
   2.3426077864727883       -6.6367705840345730        4.9924207493314245     
   1.6092295613997281       -6.0690301792834846       -7.1293286757996768     
   1.6798622177330687       -7.3664233662591556       0.92454446554156600     
  -2.0250936153516794       -8.9789540250344189       -2.3510423486262635     
   1.4447879142976237       -6.8212732714429807       -6.4520250286710672     
   7.6729772440111823       -4.2177936071132072       -3.6857391522011076     
   2.0634337466481818       -7.3925729999053020        5.5937963038193601     
   1.6688035344010075       -8.4564985704008429       0.48290828188034146     
   3.6904266968531854       -5.7966929612551068        5.2594531471291592     
   6.6363798409872183       -6.7401767671526942       0.81808721398607331     
   1.3609044438001123       -6.6938521451759723        3.4698634606456911     
   7.4776779373582345       -1.6943441601438660        5.5554824904756996     
   5.2617973018164053       -7.0565025580755085        3.5735456173645561     
   5.9194718671038666       -4.2964859958414650       -6.0302647262807234     
   5.2667006525834550       -2.5000359500232654        7.2685968818495112     
   7.8384517349228213       -3.1504911537133244        1.1981507533553204     
   1.1560485469129818       -5.4393214527396667       -3.9319182623099396     
   4.6100683312400097       -6.5262726645389115       -3.0376616023689165     
   9.0602598560069207       -2.3337842522121361        1.3767537582498426     
 -0.81780800635972972       -8.0048990935266868      -0.26129965111653741     
   6.6878512229904619       -3.4530494023445022       -5.7788372244423893     
   5.4844981654571816       -5.4387818082950243      -0.28212926077046707     
   5.4706945173339712       -7.5352738242493684        1.8436693856492985     
   6.0329668570293684       -6.4198226580361109        3.5454333519180699     
   3.9439235946476758       -6.2971561217915015       -5.9196018691900409     
   3.7299337245438609       -8.4633204006623242        2.1702364103826421     
   9.1377614110614633      -0.38727921040689794       -2.3431369229471017     
 -0.48282976489777341       -8.6392224734057272       -3.9225905492668005     
   4.8762362045591798       -5.9758663591641801        3.6780023356005160     
   2.8882078054455196       -9.0468912184489980      -0.24713615203986858     
   3.9017190282178649       -7.8739875321474431       -3.6041642981947026     
  0.78299847633697950       -8.8987862395135053        3.2324388554265155     
   2.9474776154687494       -5.9833633986420889       -1.2872150279479779     
  -2.5367945526504441       -8.2163958763168647       -4.0380027013119415     
   5.3963399535315437       -5.1613702854473660       -5.8291595562328444     
 -0.28980448432910866       -6.6504199445583021       -3.0618207945296003     
   8.0960685020503433       -1.0317241010866396        4.5248720655323673     
  -3.3047274628312224       -7.1646139814263643       0.90354182131812966     
   6.4270585842342234       -4.3058977706148891        2.5601728970807534     
   6.4603492590088756       -5.6280736746336961       -4.1022254888316896     
   2.8428038131233611       -5.5554894127955068        7.1627568212176849     
   6.7523891322496299       -5.7351405966805507        3.4284790000499847     
   6.1891995188262356       -5.9859552690434823       0.31704453568513213     
   4.6225500716270922       -8.0687650972235208        1.9391559390153605     
   3.8787580578670129       -5.8778736155355427       -2.8221055666878652     
   2.8599488017800470       -7.7565730119638605        4.6804165996427685     
   3.3998736093090205       -6.8144988485093458      -0.95526911591966257     
   3.1741351308329366       -5.7611032986733965       -3.5303009092128352     
 -0.38922452733761848       -5.8969984212908280        1.4560200041621041     
  -2.2233471672561160       -7.7134531317002351       0.36283493147472395     
   3.0757668603203614       -6.4386904585525411       -2.6167104046309748     
  0.89849765398747927       -7.6517000719310264        3.6793368803403745     
  -1.9281167981628955       -8.3144348115598561        4.1575608843136189     
   1.3550491840711740       -9.0829096791106636        2.4316628693009585     
   2.6914175042308219       -7.0429750370304403        1.9809672618051444     
   5.0317402989946665       -5.6631738080994918       0.65722774771559234     
   8.8127707737907954      -0.78764761567182595       -3.2025399878376914     
  -8.9987435867536769E-002  -7.3881311404246750        3.9029080180473553E-002
  -7.4479695697724696E-002  -9.4195723206896798       -1.2254369879393272     
   1.5085983195216672       -8.4686064332756210       -2.3166816878460716     
   6.8508478955436596       -4.9540388751279405        4.3137880145201066     
  -1.8379512848787734       -8.1235447196576587        2.4904948098283661     
   3.2391897567330075       -7.5382033919605620       -2.4996907727155393     
 -0.67781369739797004       -6.9082804770332054       -6.4709179192440018     
   8.2120213224384955       -3.6154599839870967       -3.0970370821197255     
   2.7742731070626676       -8.8320565533953204        2.1313621837167500     
   7.5273195593322688       -5.7846029977803610      -0.23929093499706519     
  0.55608389824813909       -5.8012727623043432        2.6126325656880622     
  -1.8412430320485882       -7.3889337598911675        5.6396529891466836     
 -0.21277887633680642       -6.5800536996035790       -5.5124534853001803     
   2.5586474325724455       -7.8234474021826168       -4.7425339187304667     
 -0.73703261644769302       -7.0997382928063848       -4.8377947974176294     
   5.3624862194378586       -7.8408170432092508      -0.12242086557330893     
   7.5102134345803533       -2.9960873044550902      -0.27381746601271723     
   6.8853813557680672       -6.5439777610444896      -0.13449764321421087     
 -0.24751341067578170       -6.6977092368390618       -4.0632848644559436     
   6.1213317453723146       -5.4659132644502328       -2.3787608940259455     
  -1.1630191229704860       -7.1136169604116155        3.2651085460670311E-002
   6.7720154284933924       -5.0638525097075204        3.0291392434796643E-002
   7.5017306239669006       -5.3253646116791780       -2.3459705140531049     
 -0.49841569119208490       -8.7271450369200085       0.35320097233779613     
   4.6204322720326108       -7.2804975739168274       -3.9855232492188954     
  -2.9123763596338290       -7.8606652590320598       -2.1457874455339523     
   1.4860490605615089       -7.6402302506743069      -0.80962030051033107     
  0.35644151497452858       -7.5886369230767912       -4.0868771306897385     
   6.0782860258779179       -4.3371473397401079       -4.2312982484085717     
   8.0543816379462907       -4.9874301594118498      -0.53906140516721457     
   5.8251161518490715E-003  -9.2374741033631071       -2.2165200712059803     
   2.2768398788762134       -6.1357473297822258       0.49995599415118869     
   4.5986656361038429       -6.0336899166096121       -1.9841335026598732     
  0.97445133177500676       -9.4353769608273730       0.52351200460502656     
   3.1423588611606652       -8.4541562042056704        2.9807679157422080     
   6.1595301569012451       -7.2317886936146580      -0.10660895236543252     
   1.3006349836286990       -6.3203479697725147       0.37558042181152634     
[...]
POINT_DATA  500
SCALARS radius float
LOOKUP_TABLE default
  0.50000000000000000     
  0.50000000000000000     
  0.50000000000000000     
  0.50000000000000000     
  0.50000000000000000     
  0.50000000000000000     
  0.50000000000000000     
  0.50000000000000000     
  0.50000000000000000     
  0.50000000000000000     
  0.50000000000000000     
  0.50000000000000000     
  0.50000000000000000     
  0.50000000000000000     
  0.50000000000000000     
  0.50000000000000000     
  0.50000000000000000     
  0.50000000000000000     
  0.50000000000000000     
  0.50000000000000000     
  0.50000000000000000     
  0.50000000000000000     
  0.50000000000000000     
  0.50000000000000000     
  0.50000000000000000     
  0.50000000000000000     
  0.50000000000000000     
  0.50000000000000000     
  0.50000000000000000     
  0.50000000000000000     
  0.50000000000000000     
  0.50000000000000000     
  0.50000000000000000     
  0.50000000000000000     
  0.50000000000000000     
  0.50000000000000000     
  0.50000000000000000     
  0.50000000000000000     
  0.50000000000000000     
  0.50000000000000000     
  0.50000000000000000     
  0.50000000000000000     
  0.50000000000000000     
  0.50000000000000000     
  0.50000000000000000     
  0.50000000000000000     
  0.50000000000000000     
  0.50000000000000000     
  0.50000000000000000     
  0.50000000000000000     
  0.50000000000000000     
  0.50000000000000000     
  0.50000000000000000     
  0.50000000000000000     
  0.50000000000000000     
  0.50000000000000000     
  0.50000000000000000     
  0.50000000000000000     
  0.50000000000000000     
  0.50000000000000000     
  0.50000000000000000     
  0.50000000000000000     
  0.50000000000000000     
  0.50000000000000000     
  0.50000000000000000     
  0.50000000000000000     
  0.50000000000000000     
  0.50000000000000000     
  0.50000000000000000     
  0.50000000000000000     
  0.50000000000000000     
  0.50000000000000000     
  0.50000000000000000     
  0.50000000000000000     
  0.50000000000000000     
  0.50000000000000000     
  0.50000000000000000     
  0.50000000000000000     
  0.50000000000000000     
  0.50000000000000000     
  0.50000000000000000     
  0.50000000000000000     
  0.50000000000000000     
  0.50000000000000000     
  0.50000000000000000     
  0.50000000000000000     
  0.50000000000000000     
  0.50000000000000000     
  0.50000000000000000     
  0.50000000000000000     
  0.50000000000000000     
  0.50000000000000000     
  0.50000000000000000     
  0.50000000000000000     
  0.50000000000000000     
  0.50000000000000000     
  0.50000000000000000     
  0.50000000000000000     
  0.50000000000000000     
  0.50000000000000000     
  0.50000000000000000     
  0.50000000000000000     
  0.50000000000000000     
  0.50000000000000000     
  0.50000000000000000     
  0.50000000000000000     
  0.50000000000000000     
  0.50000000000000000     
  0.50000000000000000     
  0.50000000000000000     
  0.50000000000000000     
  0.50000000000000000     
  0.50000000000000000     
  0.50000000000000000     
  0.50000000000000000     
  0.50000000000000000     
  0.50000000000000000     
  0.50000000000000000     
  0.50000000000000000     
  0.50000000000000000     
  0.50000000000000000     
  0.50000000000000000     
  0.50000000000000000     
  0.50000000000000000     
  0.50000000000000000     
  0.50000000000000000     
  0.50000000000000000     
  0.50000000000000000     
  0.50000000000000000     
  0.50000000000000000     
  0.50000000000000000     
  0.50000000000000000     
  0.50000000000000000     
  0.50000000000000000     
  0.50000000000000000     
  0.50000000000000000     
  0.50000000000000000     
  0.50000000000000000     
  0.50000000000000000     
  0.50000000000000000     
  0.50000000000000000     
  0.50000000000000000     
  0.50000000000000000     
  0.50000000000000000     
  0.50000000000000000     
  0.50000000000000000     
  0.50000000000000000     
  0.50000000000000000     
  0.50000000000000000     
  0.50000000000000000     
  0.50000000000000000     
  0.50000000000000000     
  0.50000000000000000     
  0.50000000000000000     
  0.50000000000000000     
  0.50000000000000000     
  0.50000000000000000     
  0.50000000000000000     
  0.50000000000000000     
  0.50000000000000000     
  0.50000000000000000     
  0.50000000000000000     
  0.50000000000000000     
  0.50000000000000000     
  0.50000000000000000     
  0.50000000000000000     
  0.50000000000000000     
  0.50000000000000000     
  0.50000000000000000     
  0.50000000000000000     
  0.50000000000000000     
  0.50000000000000000     
  0.50000000000000000     
  0.50000000000000000     
  0.50000000000000000     
  0.50000000000000000     
  0.50000000000000000     
  0.50000000000000000     
  0.50000000000000000     
  0.50000000000000000     
  0.50000000000000000     
  0.50000000000000000     
  0.50000000000000000     
  0.50000000000000000     
  0.50000000000000000     
  0.50000000000000000     
  0.50000000000000000     
  0.50000000000000000     
  0.50000000000000000     
  0.50000000000000000     
  0.50000000000000000     
  0.50000000000000000     
  0.50000000000000000     
  0.50000000000000000     
  0.50000000000000000     
  0.50000000000000000     
  0.50000000000000000     
  0.50000000000000000     
  0.50000000000000000     
  0.50000000000000000     
  0.50000000000000000     
  0.50000000000000000     
  0.50000000000000000     
  0.50000000000000000     
  0.50000000000000000     
  0.50000000000000000     
  0.50000000000000000     
  0.50000000000000000     
  0.50000000000000000     
  0.50000000000000000     
  0.50000000000000000     
  0.50000000000000000     
  0.50000000000000000     
  0.50000000000000000     
  0.50000000000000000     
  0.50000000000000000     
  0.50000000000000000     
  0.50000000000000000     
  0.50000000000000000     
  0.50000000000000000     
  0.50000000000000000     
  0.50000000000000000     
  0.50000000000000000     
  0.50000000000000000     
  0.50000000000000000     
  0.50000000000000000     
  0.50000000000000000     
  0.50000000000000000     
  0.50000000000000000     
  0.50000000000000000     
  0.50000000000000000     
  0.50000000000000000     
  0.50000000000000000     
  0.50000000000000000     
  0.50000000000000000     
  0.50000000000000000     
  0.50000000000000000     
  0.50000000000000000     
  0.50000000000000000     
  0.50000000000000000     
  0.50000000000000000     
  0.50000000000000000     
  0.50000000000000000     
  0.50000000000000000     
  0.50000000000000000     
  0.50000000000000000     
  0.50000000000000000     
  0.50000000000000000     
  0.50000000000000000     
  0.50000000000000000     
  0.50000000000000000     
  0.50000000000000000     
  0.50000000000000000     
  0.50000000000000000     
  0.50000000000000000     
  0.50000000000000000     
  0.50000000000000000     
  0.50000000000000000     
  0.50000000000000000     
  0.50000000000000000     
  0.50000000000000000     
  0.50000000000000000     
  0.50000000000000000     
  0.50000000000000000     
  0.50000000000000000     
  0.50000000000000000     
  0.50000000000000000     
  0.50000000000000000     
  0.50000000000000000     
  0.50000000000000000     
  0.50000000000000000     
  0.50000000000000000     
  0.50000000000000000     
  0.50000000000000000     
  0.50000000000000000     
  0.50000000000000000     
  0.50000000000000000     
  0.50000000000000000     
  0.50000000000000000     
  0.50000000000000000     
  0.50000000000000000     
  0.50000000000000000     
  0.50000000000000000     
  0.50000000000000000     
  0.50000000000000000     
  0.50000000000000000     
  0.50000000000000000     
  0.50000000000000000     
  0.50000000000000000     
  0.50000000000000000     
  0.50000000000000000     
  0.50000000000000000     
  0.50000000000000000     
  0.50000000000000000     
  0.50000000000000000     
  0.50000000000000000     
  0.50000000000000000     
  0.50000000000000000     
  0.50000000000000000     
  0.50000000000000000     
  0.50000000000000000     
  0.50000000000000000     
  0.50000000000000000     
  0.50000000000000000     
  0.50000000000000000     
  0.50000000000000000     
  0.50000000000000000     
  0.50000000000000000     
  0.50000000000000000     
  0.50000000000000000     
  0.50000000000000000     
  0.50000000000000000     
  0.50000000000000000     
  0.50000000000000000     
  0.50000000000000000     
  0.50000000000000000     
  0.50000000000000000     
  0.50000000000000000     
  0.50000000000000000     
  0.50000000000000000     
  0.50000000000000000     
  0.50000000000000000     
  0.50000000000000000     
  0.50000000000000000     
  0.50000000000000000     
  0.50000000000000000     
  0.50000000000000000     
  0.50000000000000000     
  0.50000000000000000     
  0.50000000000000000     
  0.50000000000000000     
  0.50000000000000000     
  0.50000000000000000     
  0.50000000000000000     
  0.50000000000000000     
  0.50000000000000000     
  0.50000000000000000     
  0.50000000000000000     
  0.50000000000000000     
  0.50000000000000000     
  0.50000000000000000     
  0.50000000000000000     
  0.50000000000000000     
  0.50000000000000000     
  0.50000000000000000     
  0.50000000000000000     
  0.50000000000000000     
  0.50000000000000000     
  0.50000000000000000     
  0.50000000000000000     
  0.50000000000000000     
  0.50000000000000000     
  0.50000000000000000     
  0.50000000000000000     
  0.50000000000000000     
  0.50000000000000000     
  0.50000000000000000     
  0.50000000000000000     
  0.50000000000000000     
  0.50000000000000000     
  0.50000000000000000     
  0.50000000000000000     
  0.50000000000000000     
  0.50000000000000000     
  0.50000000000000000     
  0.50000000000000000     
  0.50000000000000000     
  0.50000000000000000     
  0.50000000000000000     
  0.50000000000000000     
  0.50000000000000000     
  0.50000000000000000     
  0.50000000000000000     
  0.50000000000000000     
  0.50000000000000000     
  0.50000000000000000     
  0.50000000000000000     
  0.50000000000000000     
  0.50000000000000000     
  0.50000000000000000     
  0.50000000000000000     
  0.50000000000000000     
  0.50000000000000000     
  0.50000000000000000     
  0.50000000000000000     
  0.50000000000000000     
  0.50000000000000000     
  0.50000000000000000     
  0.50000000000000000     
  0.50000000000000000     
  0.50000000000000000     
  0.50000000000000000     
  0.50000000000000000     
  0.50000000000000000     
  0.50000000000000000     
  0.50000000000000000     
  0.50000000000000000     
  0.50000000000000000     
  0.50000000000000000     
  0.50000000000000000     
  0.50000000000000000     
  0.50000000000000000     
  0.50000000000000000     
  0.50000000000000000     
  0.50000000000000000     
  0.50000000000000000     
  0.50000000000000000     
  0.50000000000000000     
  0.50000000000000000     
  0.50000000000000000     
  0.50000000000000000     
  0.50000000000000000     
  0.50000000000000000     
  0.50000000000000000     
  0.50000000000000000     
  0.50000000000000000     
  0.50000000000000000     
  0.50000000000000000     
  0.50000000000000000     
  0.50000000000000000     
  0.50000000000000000     
  0.50000000000000000     
  0.50000000000000000     
  0.50000000000000000     
  0.50000000000000000     
  0.50000000000000000     
  0.50000000000000000     
  0.50000000000000000     
  0.50000000000000000     
  0.50000000000000000     
  0.50000000000000000     
  0.50000000000000000     
  0.50000000000000000     
  0.50000000000000000     
  0.50000000000000000     
  0.50000000000000000     
  0.50000000000000000     
  0.50000000000000000     
  0.50000000000000000     
  0.50000000000000000     
  0.50000000000000000     
  0.50000000000000000     
  0.50000000000000000     
  0.50000000000000000     
  0.50000000000000000     
  0.50000000000000000     
  0.50000000000000000     
  0.50000000000000000     
  0.50000000000000000     
  0.50000000000000000     
  0.50000000000000000     
  0.50000000000000000     
  0.50000000000000000     
  0.50000000000000000     
  0.50000000000000000     
  0.50000000000000000     
  0.50000000000000000     
  0.50000000000000000     
  0.50000000000000000     
  0.50000000000000000     
  0.50000000000000000     
  0.50000000000000000     
  0.50000000000000000     
  0.50000000000000000     
  0.50000000000000000     
  0.50000000000000000     
  0.50000000000000000     
  0.50000000000000000     
  0.50000000000000000     
  0.50000000000000000     
  0.50000000000000000     
  0.50000000000000000     
  0.50000000000000000     
  0.50000000000000000     
  0.50000000000000000     
  0.50000000000000000     
  0.50000000000000000     
  0.50000000000000000     
  0.50000000000000000     
  0.50000000000000000     
  0.50000000000000000     
  0.50000000000000000     
  0.50000000000000000     
  0.50000000000000000     
  0.50000000000000000     
  0.50000000000000000     
  0.50000000000000000     
  0.50000000000000000     
  0.50000000000000000     
  0.50000000000000000     
  0.50000000000000000     
  0.50000000000000000     
  0.50000000000000000     
  0.50000000000000000     
  0.50000000000000000     
  0.50000000000000000     
  0.50000000000000000     
  0.50000000000000000     
  0.50000000000000000     
  0.50000000000000000     
