# vtk DataFile Version 5.1
Data.vtk
ASCII
DATASET UNSTRUCTURED_GRID
 
POINTS 500 float
   4.7826082704742685       -8.1006474582305188        1.3252366409261476     
   4.7653441141454911       -4.6907685839819289       -1.2758356943768399     
   2.8765466115611837       -6.1169476045950839       0.86153051516539980     
   2.2869192311864848       -7.0481611456591500       -2.0975866596146990     
   2.9218689851003297       -8.8714188077015894       -1.7032262919138044     
   3.3768255989999482E-002  -7.6652053845553372       -2.2359708205238991     
   1.4926965489443245       -8.1084719143383239        2.2851911637707119     
   3.8818136207207186       -6.4282039803598341        1.2429187119589529     
   7.3460927348593197       -4.1590873963159796       -2.0833147756263992     
   8.3807859239164824       -1.4019058833729481       -3.5633325506174689     
 -0.86359832258671343       -9.3552552191178666       -1.4083384867608870     
   5.9402409690067906       -1.8375327559665662       -6.3436087147255522     
   5.3706430390335065       -6.1943509128717285        2.7100084132795574     
 -0.15587090116895708       -7.5380194366938955       0.92251915036224807     
  0.57577794272751104       -6.8516559733109785       -2.4516713519631903     
   2.0898881742779398       -9.1887519572047829       -1.2048872720214565     
   1.1544641312906969       -8.8438091952650222       -3.2716500592045938     
  0.20834590854531454       -8.4421596949110604        1.1472195477816949     
   6.1875265255458327       -4.9982452672636626        3.4936848790675441     
   5.5629887152668251       -7.2040604737797880       -2.7056688766994959     
   4.8135033840578716       -5.8999060929812481      -0.43250331645496121     
   7.8770960692605163       -4.4131804594635664       -2.8943579848979759     
   8.8436488386991865       -2.2067407961166237        2.6774670361879105     
   4.6250309741605369       -5.6331136707897000        4.2118944262408364     
   2.2117185977980092       -8.2090965194715260       -1.0462443177010059     
   8.8106915000109094      -0.50185908795031597       -3.4928897505778069     
   7.8444885109910795E-002  -7.2192837177732079        3.1169752346071977     
   4.4743629013269590       -5.2259537121513331       -3.3668296721409492     
   5.1974211716056429       -5.5322493656811256       -5.7120882038632406     
   3.2598049427988580       -8.5965966926541668        2.3924728364373737     
   1.4890688946120263       -6.4018510683507834       -3.8513056818032294     
  0.43678265224403506       -9.0530986086283392        2.8449023319949731     
   4.9560530092134574       -6.7180962532301072       -4.5338300758975931     
   1.1080157690022172       -7.5919590221574644        1.0122959303800656     
   8.4969283660914012       -3.9581698310989499       -1.4200936519124236     
   6.0123289039254271       -5.1371060029238027       -5.1363161593870590     
  -2.8066291134504073       -9.0079409893431226       -1.1085652750087056     
   4.3735952330536971       -5.7772950131277572        6.0307956936053779     
   4.8267004286513480       -7.1206285725583447       0.90215877180691773     
   4.1495381709935693       -6.8217981179868508        5.1293363202999860     
   3.4530075082723757       -5.4845644667694771        1.3794921315665376     
  -2.2664409293945931       -8.9161398488113015        2.2368319343884244     
   2.9535516817959020       -7.2472662357451174        5.3709310548877562     
   2.5795457334559035       -5.3211272933302087        5.7239649531608263     
   1.9347623260675828       -7.6202395863536916       -5.3328014362072240     
   1.8164525234498496       -8.4599487601739387       -3.9217512882566918     
   7.0926107011179349       -3.2191966524939462        3.4190356221211258     
  -2.2102080361202709       -8.7831899323249285       -1.9398179168303740     
   6.0689404921051961       -5.4433256168905499       -2.6916253741578529     
   2.9633942993275020       -6.1677397293513874      -0.13335214568161613     
  -2.0063823443704965       -6.9075253083599977      -0.23932642626467848     
   2.9511360320177955       -8.2647051430386274       -3.6384952976336407     
   4.9654186166247873       -5.4078663364193744       0.43872578931772033     
   7.9551292638245306       -2.9643186834462276E-002   3.3235731413237599     
   5.4527718514257533       -3.7481864685243997        4.8785323843601693     
   6.1838474412221149       -3.8391882567561599       -6.0880312595986350     
   8.0136187969522403      -0.30626948983778973        4.5653476243462414     
   4.0513774938523870       -7.0783105882319637       -4.8474771671625154     
   8.2496861898812721       -3.5155720522643477       -3.1318744776518952     
   2.9735638357207499       -6.7501563073031310        4.3335008392156977     
   8.5770569018056744      -0.53709796005474209      -0.67880359127832046     
   7.2302845195919510       -1.2984148475493456       -5.8973318498928613     
   8.0105797638969918       -2.2822625053832719        4.5440033185794491     
 -0.78803730989674781       -6.7494525311264164       -1.4622847186496521     
   7.2611775814134942       -4.8953075635129695       -3.5182470009249243     
   3.9633231605406749       -6.0184594890231287       -6.1902076055332769     
  0.38140967368446071       -8.3890438441154842       -1.5746365211419515     
  -1.0341711810008332       -8.4650361667635750        4.1855156559927487     
   6.0194205192146857       -7.3256031272760245      -0.21169503234258108     
   3.8717017220412799       -5.7590670546996963        3.4816652392882466     
   2.2700798699382609       -6.9803616309600294       -6.0308702882824035     
   5.5362764192381793       -6.2989925746141644        4.4419010250225730     
   1.4844036787195785       -6.2918979629241356        5.2178341566809641     
   7.4659165435579959       -4.1307895337903036       0.78476186700921602     
   6.7196853753673524       -2.3943195897362415        2.9604374269875477     
   4.0711879580963437       -6.2015718191910878       -2.0746803853865936     
   5.7647874003691593       -4.4076865783898826        5.7614993593358239     
   3.2218956529048017       -7.0567632659312345      -0.52024998106029263     
  0.20842244180374137       -6.0260851775734130       -2.8829731954549582     
   2.5315956130219019       -9.1523333942931977      -0.27763649948484792     
   4.2866030618083020       -8.4615426700679990       0.52348266899411067     
   3.1435994814742414       -6.5469624044097632       -2.2217958728970517     
   1.3006484928735387       -7.7835391048609690        3.2152507918084123     
   7.7589124464629116       -4.4582165957238349        3.1202102367548088     
   8.1598666547975149       -1.2954042892593349        4.6583784255410494     
   2.4163686660572230       -7.0706464903965891        1.9901314363696607     
   4.7582927268846706       -5.8813562817250613        1.2960877478553214     
   1.5447489856516416       -7.0032926994936506       -4.6490888117146811     
  -1.3267037472837673       -7.6183213724326322      -0.74991131099808594     
   9.1892471345501789       -2.1227815083495005       -1.0391341500838109     
   5.0825071208639985       -6.6239965746447211       -1.8429549817749449     
  -4.7940979858687163       -7.9265115162848643       -2.1055569428795375     
  -2.3267144173939052       -9.2037906770254043       -9.2149534910427613E-002
   6.5578325215830047       -5.2139286108725695       -1.8268701514394112     
   5.3676711467689477       -6.9337418218801279       -3.6484097153048380     
 -0.28557204553517912       -7.7216425237264925       -3.9969920933117571     
   7.3011375204887399       -1.2620517606252895        5.5327744863844845     
   5.1592057187526894       -4.3457882455049308       0.11718371706392251     
   3.6779509530275445       -8.1545628828063794        3.1977511522690212     
   6.4602601195593499       -6.4444649189286123        2.5068025666527021     
   5.5142704727369996       -7.5280247735977284       -1.7608571793715393     
   7.7491597589249555       -1.7899645132902746       -5.1958724873831388     
   6.1883140912046102       -6.5164900914532780       -3.0799765059447157     
   6.1796735708912758       -3.7929116131353600       0.17521282717710124     
   2.0191589007331987       -6.1233897436187741       0.34515936791767826     
   4.3123136028078486       -4.9660895011692912        1.4337888038147677     
   6.2736870298869700       -6.8098830871050646       -2.1230067443793721     
   5.9977334693943796       -4.6387216012112029       -3.4376068528681345     
  -1.0072373498719709       -8.4398447419135803      -0.20304739695419075     
   7.8362020312412630       -3.6331135733268307       -9.7704095920326424E-003
 -0.81277101751297576       -6.8532506511751778       -5.5562018577247656     
   3.0488037069180964       -8.0350339354570757       0.82306626917455783     
   5.6484095574372031       -2.5933910590640195       -6.9333199442319486     
   5.2615596093643751       -7.8837852383580813      -0.54968695191903194     
  0.17490458882844417       -6.9931638448346458      -0.64999439980638773     
   2.1882533076616091       -8.8754008883514910       -2.5856946701921038     
   2.9866881546901141       -5.9074478029732411       -5.4614606606011504     
   5.8874119122082149       -3.9809857899440888       -2.6833817888384934     
   8.9646476668362478       -2.4348528954578166       -1.9891403878034066     
  -1.2563027368887263       -7.5663956391742087        1.0370426602786467     
   4.0510316311057455       -5.8554842033337975       -1.1240742073537138     
   9.3057875450843675       -1.1332530968207233        1.0057011550874262     
   6.5541541641108907       -2.6782399146261135        5.8558797550053763     
   4.2507359096663668       -4.3646008470507711       -2.3981220532637453     
  -1.7266208529188170       -7.7848917854225794       0.15142000949882342     
[...]
POINT_DATA  500
SCALARS radius float
LOOKUP_TABLE default
  0.50000000000000000     
  0.50000000000000000     
  0.50000000000000000     
  0.50000000000000000     
  0.50000000000000000     
  0.50000000000000000     
  0.50000000000000000     
  0.50000000000000000     
  0.50000000000000000     
  0.50000000000000000     
  0.50000000000000000     
  0.50000000000000000     
  0.50000000000000000     
  0.50000000000000000     
  0.50000000000000000     
  0.50000000000000000     
  0.50000000000000000     
  0.50000000000000000     
  0.50000000000000000     
  0.50000000000000000     
  0.50000000000000000     
  0.50000000000000000     
  0.50000000000000000     
  0.50000000000000000     
  0.50000000000000000     
  0.50000000000000000     
  0.50000000000000000     
  0.50000000000000000     
  0.50000000000000000     
  0.50000000000000000     
  0.50000000000000000     
  0.50000000000000000     
  0.50000000000000000     
  0.50000000000000000     
  0.50000000000000000     
  0.50000000000000000     
  0.50000000000000000     
  0.50000000000000000     
  0.50000000000000000     
  0.50000000000000000     
  0.50000000000000000     
  0.50000000000000000     
  0.50000000000000000     
  0.50000000000000000     
  0.50000000000000000     
  0.50000000000000000     
  0.50000000000000000     
  0.50000000000000000     
  0.50000000000000000     
  0.50000000000000000     
  0.50000000000000000     
  0.50000000000000000     
  0.50000000000000000     
  0.50000000000000000     
  0.50000000000000000     
  0.50000000000000000     
  0.50000000000000000     
  0.50000000000000000     
  0.50000000000000000     
  0.50000000000000000     
  0.50000000000000000     
  0.50000000000000000     
  0.50000000000000000     
  0.50000000000000000     
  0.50000000000000000     
  0.50000000000000000     
  0.50000000000000000     
  0.50000000000000000     
  0.50000000000000000     
  0.50000000000000000     
  0.50000000000000000     
  0.50000000000000000     
  0.50000000000000000     
  0.50000000000000000     
  0.50000000000000000     
  0.50000000000000000     
  0.50000000000000000     
  0.50000000000000000     
  0.50000000000000000     
  0.50000000000000000     
  0.50000000000000000     
  0.50000000000000000     
  0.50000000000000000     
  0.50000000000000000     
  0.50000000000000000     
  0.50000000000000000     
  0.50000000000000000     
  0.50000000000000000     
  0.50000000000000000     
  0.50000000000000000     
  0.50000000000000000     
  0.50000000000000000     
  0.50000000000000000     
  0.50000000000000000     
  0.50000000000000000     
  0.50000000000000000     
  0.50000000000000000     
  0.50000000000000000     
  0.50000000000000000     
  0.50000000000000000     
  0.50000000000000000     
  0.50000000000000000     
  0.50000000000000000     
  0.50000000000000000     
  0.50000000000000000     
  0.50000000000000000     
  0.50000000000000000     
  0.50000000000000000     
  0.50000000000000000     
  0.50000000000000000     
  0.50000000000000000     
  0.50000000000000000     
  0.50000000000000000     
  0.50000000000000000     
  0.50000000000000000     
  0.50000000000000000     
  0.50000000000000000     
  0.50000000000000000     
  0.50000000000000000     
  0.50000000000000000     
  0.50000000000000000     
  0.50000000000000000     
  0.50000000000000000     
  0.50000000000000000     
  0.50000000000000000     
  0.50000000000000000     
  0.50000000000000000     
  0.50000000000000000     
  0.50000000000000000     
  0.50000000000000000     
  0.50000000000000000     
  0.50000000000000000     
  0.50000000000000000     
  0.50000000000000000     
  0.50000000000000000     
  0.50000000000000000     
  0.50000000000000000     
  0.50000000000000000     
  0.50000000000000000     
  0.50000000000000000     
  0.50000000000000000     
  0.50000000000000000     
  0.50000000000000000     
  0.50000000000000000     
  0.50000000000000000     
  0.50000000000000000     
  0.50000000000000000     
  0.50000000000000000     
  0.50000000000000000     
  0.50000000000000000     
  0.50000000000000000     
  0.50000000000000000     
  0.50000000000000000     
  0.50000000000000000     
  0.50000000000000000     
  0.50000000000000000     
  0.50000000000000000     
  0.50000000000000000     
  0.50000000000000000     
  0.50000000000000000     
  0.50000000000000000     
  0.50000000000000000     
  0.50000000000000000     
  0.50000000000000000     
  0.50000000000000000     
  0.50000000000000000     
  0.50000000000000000     
  0.50000000000000000     
  0.50000000000000000     
  0.50000000000000000     
  0.50000000000000000     
  0.50000000000000000     
  0.50000000000000000     
  0.50000000000000000     
  0.50000000000000000     
  0.50000000000000000     
  0.50000000000000000     
  0.50000000000000000     
  0.50000000000000000     
  0.50000000000000000     
  0.50000000000000000     
  0.50000000000000000     
  0.50000000000000000     
  0.50000000000000000     
  0.50000000000000000     
  0.50000000000000000     
  0.50000000000000000     
  0.50000000000000000     
  0.50000000000000000     
  0.50000000000000000     
  0.50000000000000000     
  0.50000000000000000     
  0.50000000000000000     
  0.50000000000000000     
  0.50000000000000000     
  0.50000000000000000     
  0.50000000000000000     
  0.50000000000000000     
  0.50000000000000000     
  0.50000000000000000     
  0.50000000000000000     
  0.50000000000000000     
  0.50000000000000000     
  0.50000000000000000     
  0.50000000000000000     
  0.50000000000000000     
  0.50000000000000000     
  0.50000000000000000     
  0.50000000000000000     
  0.50000000000000000     
  0.50000000000000000     
  0.50000000000000000     
  0.50000000000000000     
  0.50000000000000000     
  0.50000000000000000     
  0.50000000000000000     
  0.50000000000000000     
  0.50000000000000000     
  0.50000000000000000     
  0.50000000000000000     
  0.50000000000000000     
  0.50000000000000000     
  0.50000000000000000     
  0.50000000000000000     
  0.50000000000000000     
  0.50000000000000000     
  0.50000000000000000     
  0.50000000000000000     
  0.50000000000000000     
  0.50000000000000000     
  0.50000000000000000     
  0.50000000000000000     
  0.50000000000000000     
  0.50000000000000000     
  0.50000000000000000     
  0.50000000000000000     
  0.50000000000000000     
  0.50000000000000000     
  0.50000000000000000     
  0.50000000000000000     
  0.50000000000000000     
  0.50000000000000000     
  0.50000000000000000     
  0.50000000000000000     
  0.50000000000000000     
  0.50000000000000000     
  0.50000000000000000     
  0.50000000000000000     
  0.50000000000000000     
  0.50000000000000000     
  0.50000000000000000     
  0.50000000000000000     
  0.50000000000000000     
  0.50000000000000000     
  0.50000000000000000     
  0.50000000000000000     
  0.50000000000000000     
  0.50000000000000000     
  0.50000000000000000     
  0.50000000000000000     
  0.50000000000000000     
  0.50000000000000000     
  0.50000000000000000     
  0.50000000000000000     
  0.50000000000000000     
  0.50000000000000000     
  0.50000000000000000     
  0.50000000000000000     
  0.50000000000000000     
  0.50000000000000000     
  0.50000000000000000     
  0.50000000000000000     
  0.50000000000000000     
  0.50000000000000000     
  0.50000000000000000     
  0.50000000000000000     
  0.50000000000000000     
  0.50000000000000000     
  0.50000000000000000     
  0.50000000000000000     
  0.50000000000000000     
  0.50000000000000000     
  0.50000000000000000     
  0.50000000000000000     
  0.50000000000000000     
  0.50000000000000000     
  0.50000000000000000     
  0.50000000000000000     
  0.50000000000000000     
  0.50000000000000000     
  0.50000000000000000     
  0.50000000000000000     
  0.50000000000000000     
  0.50000000000000000     
  0.50000000000000000     
  0.50000000000000000     
  0.50000000000000000     
  0.50000000000000000     
  0.50000000000000000     
  0.50000000000000000     
  0.50000000000000000     
  0.50000000000000000     
  0.50000000000000000     
  0.50000000000000000     
  0.50000000000000000     
  0.50000000000000000     
  0.50000000000000000     
  0.50000000000000000     
  0.50000000000000000     
  0.50000000000000000     
  0.50000000000000000     
  0.50000000000000000     
  0.50000000000000000     
  0.50000000000000000     
  0.50000000000000000     
  0.50000000000000000     
  0.50000000000000000     
  0.50000000000000000     
  0.50000000000000000     
  0.50000000000000000     
  0.50000000000000000     
  0.50000000000000000     
  0.50000000000000000     
  0.50000000000000000     
  0.50000000000000000     
  0.50000000000000000     
  0.50000000000000000     
  0.50000000000000000     
  0.50000000000000000     
  0.50000000000000000     
  0.50000000000000000     
  0.50000000000000000     
  0.50000000000000000     
  0.50000000000000000     
  0.50000000000000000     
  0.50000000000000000     
  0.50000000000000000     
  0.50000000000000000     
  0.50000000000000000     
  0.50000000000000000     
  0.50000000000000000     
  0.50000000000000000     
  0.50000000000000000     
  0.50000000000000000     
  0.50000000000000000     
  0.50000000000000000     
  0.50000000000000000     
  0.50000000000000000     
  0.50000000000000000     
  0.50000000000000000     
  0.50000000000000000     
  0.50000000000000000     
  0.50000000000000000     
  0.50000000000000000     
  0.50000000000000000     
  0.50000000000000000     
  0.50000000000000000     
  0.50000000000000000     
  0.50000000000000000     
  0.50000000000000000     
  0.50000000000000000     
  0.50000000000000000     
  0.50000000000000000     
  0.50000000000000000     
  0.50000000000000000     
  0.50000000000000000     
  0.50000000000000000     
  0.50000000000000000     
  0.50000000000000000     
  0.50000000000000000     
  0.50000000000000000     
  0.50000000000000000     
  0.50000000000000000     
  0.50000000000000000     
  0.50000000000000000     
  0.50000000000000000     
  0.50000000000000000     
  0.50000000000000000     
  0.50000000000000000     
  0.50000000000000000     
  0.50000000000000000     
  0.50000000000000000     
  0.50000000000000000     
  0.50000000000000000     
  0.50000000000000000     
  0.50000000000000000     
  0.50000000000000000     
  0.50000000000000000     
  0.50000000000000000     
  0.50000000000000000     
  0.50000000000000000     
  0.50000000000000000     
  0.50000000000000000     
  0.50000000000000000     
  0.50000000000000000     
  0.50000000000000000     
  0.50000000000000000     
  0.50000000000000000     
  0.50000000000000000     
  0.50000000000000000     
  0.50000000000000000     
  0.50000000000000000     
  0.50000000000000000     
  0.50000000000000000     
  0.50000000000000000     
  0.50000000000000000     
  0.50000000000000000     
  0.50000000000000000     
  0.50000000000000000     
  0.50000000000000000     
  0.50000000000000000     
  0.50000000000000000     
  0.50000000000000000     
  0.50000000000000000     
  0.50000000000000000     
  0.50000000000000000     
  0.50000000000000000     
  0.50000000000000000     
  0.50000000000000000     
  0.50000000000000000     
  0.50000000000000000     
  0.50000000000000000     
  0.50000000000000000     
  0.50000000000000000     
  0.50000000000000000     
  0.50000000000000000     
  0.50000000000000000     
  0.50000000000000000     
  0.50000000000000000     
  0.50000000000000000     
  0.50000000000000000     
  0.50000000000000000     
  0.50000000000000000     
  0.50000000000000000     
  0.50000000000000000     
  0.50000000000000000     
  0.50000000000000000     
  0.50000000000000000     
  0.50000000000000000     
  0.50000000000000000     
  0.50000000000000000     
  0.50000000000000000     
  0.50000000000000000     
  0.50000000000000000     
  0.50000000000000000     
  0.50000000000000000     
  0.50000000000000000     
  0.50000000000000000     
  0.50000000000000000     
  0.50000000000000000     
  0.50000000000000000     
  0.50000000000000000     
  0.50000000000000000     
  0.50000000000000000     
  0.50000000000000000     
  0.50000000000000000     
  0.50000000000000000     
  0.50000000000000000     
  0.50000000000000000     
  0.50000000000000000     
  0.50000000000000000     
  0.50000000000000000     
  0.50000000000000000     
  0.50000000000000000     
  0.50000000000000000     
  0.50000000000000000     
  0.50000000000000000     
  0.50000000000000000     
  0.50000000000000000     
  0.50000000000000000     
  0.50000000000000000     
  0.50000000000000000     
  0.50000000000000000     
  0.50000000000000000     
  0.50000000000000000     
  0.50000000000000000     
  0.50000000000000000     
  0.50000000000000000     
  0.50000000000000000     
  0.50000000000000000     
  0.50000000000000000     
  0.50000000000000000     
  0.50000000000000000     
  0.50000000000000000     
  0.50000000000000000     
  0.50000000000000000     
  0.50000000000000000     
  0.50000000000000000     
  0.50000000000000000     
  0.50000000000000000     
  0.50000000000000000     
  0.50000000000000000     
  0.50000000000000000     
  0.50000000000000000     
  0.50000000000000000     
  0.50000000000000000     
  0.50000000000000000     
  0.50000000000000000     
  0.50000000000000000     
  0.50000000000000000     
