# vtk DataFile Version 5.1
Data.vtk
ASCII
DATASET UNSTRUCTURED_GRID
 
POINTS 500 float
   2.6983845947024552       -7.1079586939634591        5.6953687714227774     
 -0.10843646592894587       -7.0062276108111252       -3.4691187415178839     
   2.2526414712517617       -5.7655435435998630       -2.3419456315355394     
   7.3979699710878792       -3.4214759764453566       -2.3102947434384156     
   8.7885507078098826       -1.2815414464147332       -3.0843469911891477     
  -2.9598814712212205       -8.8445012450277609       -1.4863402060498221     
  0.87418961843462528       -7.7693300723011642        5.3964074362920362     
 -0.67758609155963745       -8.4450868469381604       0.85388612643693496     
   5.0950412071140727       -5.2147347889288689       -2.3375343360402265     
 -0.89880061127961786       -8.8693639435653058       -3.2821062081113848     
 -0.58321749242788357       -8.4629507678185565       -1.6648113541703862     
  -1.8699086406590972       -9.2485057567232936       -1.1042562277337102     
   4.2497768624026513       -5.6466061812180834        2.7888351361310320     
  -1.8418085305214489       -8.0702357845232893       -2.9835098417010508     
   4.2509982903187717       -5.5722391726409874        5.1104234070407406     
   1.6979796015139792       -9.3468288302731253       -4.5555923258600091E-002
   1.5083287744139868       -6.3102415200372155       -1.9489450575236180     
   8.6743796970249338       -3.8358623784711283       0.52915471822743909     
 -0.63679784845924747       -7.2355286740258133        3.6160790248373287     
   3.9705560699985334       -6.5789770596242336       -3.6445427906822596     
   3.3069898091066241       -8.8868284959080093      -0.54699640808821981     
   2.4509572464254566E-003  -6.7869622425408087       -1.0965272317599506     
   1.9259657078714265       -8.0699828722431075        2.4566363779543234     
   5.6834871076625522       -3.2884175132108950        2.2781447567753905     
   4.1094412846782191       -7.6353383687530769       -1.0158135940551365     
  0.71806418653366699       -5.9097926458999801      -0.61270482224724232     
   1.3295702806909635       -9.2735823226778251        1.5723555655625869     
   8.2604849356339756      -0.52751748237350404       0.32748134820483982     
   1.2254574274293077       -7.2988081252753867       -4.3941118544207196     
   3.7947018176821738       -8.6989879043228040       0.42308626862291182     
   1.3742296637296709       -8.7570875728993194       0.69484741661569938     
   2.3121623681589272       -8.6482362104093067        3.1774495192253163     
   6.2214402147181733       -5.1466715612026359       -4.9876773407448507     
  0.51588402086987073       -6.4032759580307497       -1.8660040009939629     
  -1.4708156453304899       -8.4756583282252169       -4.0311357446181333     
 -0.87486623725244084       -7.6965918944986278       -3.8365378792737563     
   3.8050221231720212       -6.7652869897563965      -0.62743443834314361     
   6.2014402961415716       -5.4529910278043401        4.6921272498918114     
   4.4188616775079090       -7.1927248093410752        1.6919225956300126     
   1.3562351358192739       -6.2180310346799370        2.3606555204059796     
   2.2492315737276023       -8.2732522901586467       0.68097291324464038     
   1.2908177662075604       -7.2095618497918572        2.4846118263960864     
  -1.3104446408093997       -6.7619535742788681        2.0523202123607613     
 -0.39414813811469773       -6.7236373728287893        6.5609966502320258     
  0.19448744327856160       -6.5048576488898444       -6.9207032180362802     
   1.2781282191688637       -7.2817511184370325       -1.8797338408269679     
   5.4859899256776838       -3.9791304870015609        5.2038606831560985     
  -1.5663141418822895       -7.5989641722390147       0.28376254341699098     
   2.9016523762609889       -7.2082803988017110       -3.6547005816334841     
   1.2159259043260167       -6.4661574480544690       -6.7560662268099358     
   6.3923199560307769       -5.2738677484560403       -2.4724512162301333     
   2.1163926693609061       -6.8427300694548476       -4.2288826590071862     
  -2.9603075334000342       -8.1968794755873571      -0.68350308111884939     
 -0.86662441567807413       -9.1715578827992843       -2.3196658657849567     
   9.2214145649805488       -1.6009278861032910        1.3613431625831949     
   5.5758957713891677       -4.4963700342443991       -2.8424672656154906     
   7.6923952858968851       -5.0046653383050614        2.4555927520129375     
  -1.1272895916827210       -9.4265724419207171      -0.34570419915228040     
   3.5166963665885853       -5.8284023051231593       -4.5577559560072052     
   3.8305244901436990       -6.7497632859365950        3.5667014579059897     
   9.3099459159501450      -0.76901976885848022       -9.1452218934665319E-002
   1.0155626646906861       -9.0287083912291983       -2.7685834051284508     
   6.3885445327356996       -3.6836584649151152        5.9888632011783915     
   6.0897089335519778       -5.6729973447264523       -1.5998755299887881     
   1.7177686097599718       -7.0715801121687152       -6.1055764799817638     
   3.1869994807549542       -6.7000573216820083       -5.9330869871657361     
   2.2198112302373518       -8.2579956306481339       -1.1650262062370169     
   6.3288251548595902       -7.0677143773983344       0.44611413641994307     
   3.8239372289278530       -4.7340573729846165      -0.96689697966193622     
   3.3570644257811240       -5.7663058364453974        3.7272795188415833     
   1.6913926123973277       -6.8190410403016157       -5.1378670969559979     
   2.2668573926553335       -5.8732620676550225        5.7692981388613029     
   2.6562238577646355       -9.1192989023899926       0.18190284143655847     
   5.2638040578743643       -6.6106349637524726        1.6989816135348423     
   3.9885022912766832       -8.3083450567827022        2.3052387184146887     
  0.32688435090061313       -9.4757721805370050      -0.59412825288085391     
   3.5155289612412850       -5.7464578744599288        6.6880918333232762     
   7.1519607954620383       -4.8203952367949006      -0.21171768013527911     
  -2.6405231548138715       -8.2013851357538705       0.34827728929887569     
  0.77274936393846660       -6.9450848299428678       -2.6764244433567730     
   2.2693604250738870       -7.5420465541022299       -1.8621577999050398     
   7.0763062038136813       -2.9727475968088575       -1.0171451547450134     
   1.5049826605790579       -8.2889608897837501        1.5763022309232770     
   4.6083522710315030       -4.7801004116419188        1.4702986779461176     
   1.3379803365130403       -8.9870130154847523        2.7736281389443915     
   4.8343505702719609       -5.3533827805500280        4.2507848002661968     
  0.44082230677327638       -9.0007850735063624        2.3245384534712881     
  -1.3686377635279674       -7.5482939482435878        1.4366227259218529     
 -0.15796585744681013       -7.3161159331769197        2.5226992337187562     
   3.1219962092307565       -4.9457528913875048       -4.2975501545139707     
   2.5634984924943476       -7.6782494737070479       -2.8330742920306355     
  -2.3326153919521881       -7.4723281721177743       -3.6206923071719386     
   7.2854961379116938       -2.4805739160133125       0.90696265184669422     
   5.7600503910579404       -5.5317927208086077       -3.2039487225163970     
 -0.90798823135101359       -8.1621433711795017       -2.5679764092410013     
   3.8667191022062060       -6.0161682523521787       -6.2523020802194464     
   6.6520302750650329       -5.1715043677925223        1.7417695802533411     
   4.4315449889793586       -4.6316566229466432        4.8215990336646675     
  0.83794087594358946       -8.2922223971169480        4.5429594628709955     
  -1.4563571246124882       -7.7442190159703745        3.1733230140893727     
   7.0096403757649020       -6.1397597060422440       -1.4641751443302575     
   7.6511933626518802       -3.5315509460467625       -4.1247270955792343     
   5.0250059333765922       -7.6437541766048698       -2.5638622442497021     
   2.2044701877158261       -6.4010873277792282       -3.3330938562415691     
   5.5537160433829369       -3.6499374242112053        4.0626312704188638     
   3.1790107011909234       -5.9390489515022349        5.1503369238548276     
  0.70825490628098897       -7.7209741201939526       -3.6445872096389413     
   8.2502226840910353       -4.4751384294640753       -1.3506521222253338     
  -2.2435711685985793       -9.1390685383335626        1.2943661273470004     
   5.0651576298922425       -4.7368016243535500       -4.9367686935077781     
  0.44089201705938641       -7.6929574096705799       -1.5194131227444461     
   7.6008935640390183       -5.6722314132016809      -0.55739897976355779     
   3.6589025010635838       -4.0122157000516472       -7.3287510700221477     
   1.9352286026148153       -7.4734235436607230      -0.61360227417257329     
 -0.46554606713119845       -6.9942189821195893      -0.23647592705748816     
   1.2321044188526595       -8.3681358495090414       -1.0479848815532837     
   1.0861079353905525       -5.7942161204071292       -3.9154984144192602     
  0.48687208411529004       -6.5767721782472774       -4.1631692472270672     
   3.2212088830021606       -7.7872857287877686       -2.0589379715647285     
   8.5184023345166331       -2.6348113796093702        3.2778988246555283     
   2.6853553261932324       -7.9485607766877378       -4.4561276498149720     
   9.3614271664151119      -0.55318711986392333       -1.0720409171322713     
   5.8980443064024950       -7.3176984745824134        1.3835838722080640     
   4.6443841406476922       -4.3909374032326731        5.7759735437526132     
   1.7188004409527744       -5.8936943621344939      -0.85588759344945797     
[...]
POINT_DATA  500
SCALARS radius float
LOOKUP_TABLE default
  0.50000000000000000     
  0.50000000000000000     
  0.50000000000000000     
  0.50000000000000000     
  0.50000000000000000     
  0.50000000000000000     
  0.50000000000000000     
  0.50000000000000000     
  0.50000000000000000     
  0.50000000000000000     
  0.50000000000000000     
  0.50000000000000000     
  0.50000000000000000     
  0.50000000000000000     
  0.50000000000000000     
  0.50000000000000000     
  0.50000000000000000     
  0.50000000000000000     
  0.50000000000000000     
  0.50000000000000000     
  0.50000000000000000     
  0.50000000000000000     
  0.50000000000000000     
  0.50000000000000000     
  0.50000000000000000     
  0.50000000000000000     
  0.50000000000000000     
  0.50000000000000000     
  0.50000000000000000     
  0.50000000000000000     
  0.50000000000000000     
  0.50000000000000000     
  0.50000000000000000     
  0.50000000000000000     
  0.50000000000000000     
  0.50000000000000000     
  0.50000000000000000     
  0.50000000000000000     
  0.50000000000000000     
  0.50000000000000000     
  0.50000000000000000     
  0.50000000000000000     
  0.50000000000000000     
  0.50000000000000000     
  0.50000000000000000     
  0.50000000000000000     
  0.50000000000000000     
  0.50000000000000000     
  0.50000000000000000     
  0.50000000000000000     
  0.50000000000000000     
  0.50000000000000000     
  0.50000000000000000     
  0.50000000000000000     
  0.50000000000000000     
  0.50000000000000000     
  0.50000000000000000     
  0.50000000000000000     
  0.50000000000000000     
  0.50000000000000000     
  0.50000000000000000     
  0.50000000000000000     
  0.50000000000000000     
  0.50000000000000000     
  0.50000000000000000     
  0.50000000000000000     
  0.50000000000000000     
  0.50000000000000000     
  0.50000000000000000     
  0.50000000000000000     
  0.50000000000000000     
  0.50000000000000000     
  0.50000000000000000     
  0.50000000000000000     
  0.50000000000000000     
  0.50000000000000000     
  0.50000000000000000     
  0.50000000000000000     
  0.50000000000000000     
  0.50000000000000000     
  0.50000000000000000     
  0.50000000000000000     
  0.50000000000000000     
  0.50000000000000000     
  0.50000000000000000     
  0.50000000000000000     
  0.50000000000000000     
  0.50000000000000000     
  0.50000000000000000     
  0.50000000000000000     
  0.50000000000000000     
  0.50000000000000000     
  0.50000000000000000     
  0.50000000000000000     
  0.50000000000000000     
  0.50000000000000000     
  0.50000000000000000     
  0.50000000000000000     
  0.50000000000000000     
  0.50000000000000000     
  0.50000000000000000     
  0.50000000000000000     
  0.50000000000000000     
  0.50000000000000000     
  0.50000000000000000     
  0.50000000000000000     
  0.50000000000000000     
  0.50000000000000000     
  0.50000000000000000     
  0.50000000000000000     
  0.50000000000000000     
  0.50000000000000000     
  0.50000000000000000     
  0.50000000000000000     
  0.50000000000000000     
  0.50000000000000000     
  0.50000000000000000     
  0.50000000000000000     
  0.50000000000000000     
  0.50000000000000000     
  0.50000000000000000     
  0.50000000000000000     
  0.50000000000000000     
  0.50000000000000000     
  0.50000000000000000     
  0.50000000000000000     
  0.50000000000000000     
  0.50000000000000000     
  0.50000000000000000     
  0.50000000000000000     
  0.50000000000000000     
  0.50000000000000000     
  0.50000000000000000     
  0.50000000000000000     
  0.50000000000000000     
  0.50000000000000000     
  0.50000000000000000     
  0.50000000000000000     
  0.50000000000000000     
  0.50000000000000000     
  0.50000000000000000     
  0.50000000000000000     
  0.50000000000000000     
  0.50000000000000000     
  0.50000000000000000     
  0.50000000000000000     
  0.50000000000000000     
  0.50000000000000000     
  0.50000000000000000     
  0.50000000000000000     
  0.50000000000000000     
  0.50000000000000000     
  0.50000000000000000     
  0.50000000000000000     
  0.50000000000000000     
  0.50000000000000000     
  0.50000000000000000     
  0.50000000000000000     
  0.50000000000000000     
  0.50000000000000000     
  0.50000000000000000     
  0.50000000000000000     
  0.50000000000000000     
  0.50000000000000000     
  0.50000000000000000     
  0.50000000000000000     
  0.50000000000000000     
  0.50000000000000000     
  0.50000000000000000     
  0.50000000000000000     
  0.50000000000000000     
  0.50000000000000000     
  0.50000000000000000     
  0.50000000000000000     
  0.50000000000000000     
  0.50000000000000000     
  0.50000000000000000     
  0.50000000000000000     
  0.50000000000000000     
  0.50000000000000000     
  0.50000000000000000     
  0.50000000000000000     
  0.50000000000000000     
  0.50000000000000000     
  0.50000000000000000     
  0.50000000000000000     
  0.50000000000000000     
  0.50000000000000000     
  0.50000000000000000     
  0.50000000000000000     
  0.50000000000000000     
  0.50000000000000000     
  0.50000000000000000     
  0.50000000000000000     
  0.50000000000000000     
  0.50000000000000000     
  0.50000000000000000     
  0.50000000000000000     
  0.50000000000000000     
  0.50000000000000000     
  0.50000000000000000     
  0.50000000000000000     
  0.50000000000000000     
  0.50000000000000000     
  0.50000000000000000     
  0.50000000000000000     
  0.50000000000000000     
  0.50000000000000000     
  0.50000000000000000     
  0.50000000000000000     
  0.50000000000000000     
  0.50000000000000000     
  0.50000000000000000     
  0.50000000000000000     
  0.50000000000000000     
  0.50000000000000000     
  0.50000000000000000     
  0.50000000000000000     
  0.50000000000000000     
  0.50000000000000000     
  0.50000000000000000     
  0.50000000000000000     
  0.50000000000000000     
  0.50000000000000000     
  0.50000000000000000     
  0.50000000000000000     
  0.50000000000000000     
  0.50000000000000000     
  0.50000000000000000     
  0.50000000000000000     
  0.50000000000000000     
  0.50000000000000000     
  0.50000000000000000     
  0.50000000000000000     
  0.50000000000000000     
  0.50000000000000000     
  0.50000000000000000     
  0.50000000000000000     
  0.50000000000000000     
  0.50000000000000000     
  0.50000000000000000     
  0.50000000000000000     
  0.50000000000000000     
  0.50000000000000000     
  0.50000000000000000     
  0.50000000000000000     
  0.50000000000000000     
  0.50000000000000000     
  0.50000000000000000     
  0.50000000000000000     
  0.50000000000000000     
  0.50000000000000000     
  0.50000000000000000     
  0.50000000000000000     
  0.50000000000000000     
  0.50000000000000000     
  0.50000000000000000     
  0.50000000000000000     
  0.50000000000000000     
  0.50000000000000000     
  0.50000000000000000     
  0.50000000000000000     
  0.50000000000000000     
  0.50000000000000000     
  0.50000000000000000     
  0.50000000000000000     
  0.50000000000000000     
  0.50000000000000000     
  0.50000000000000000     
  0.50000000000000000     
  0.50000000000000000     
  0.50000000000000000     
  0.50000000000000000     
  0.50000000000000000     
  0.50000000000000000     
  0.50000000000000000     
  0.50000000000000000     
  0.50000000000000000     
  0.50000000000000000     
  0.50000000000000000     
  0.50000000000000000     
  0.50000000000000000     
  0.50000000000000000     
  0.50000000000000000     
  0.50000000000000000     
  0.50000000000000000     
  0.50000000000000000     
  0.50000000000000000     
  0.50000000000000000     
  0.50000000000000000     
  0.50000000000000000     
  0.50000000000000000     
  0.50000000000000000     
  0.50000000000000000     
  0.50000000000000000     
  0.50000000000000000     
  0.50000000000000000     
  0.50000000000000000     
  0.50000000000000000     
  0.50000000000000000     
  0.50000000000000000     
  0.50000000000000000     
  0.50000000000000000     
  0.50000000000000000     
  0.50000000000000000     
  0.50000000000000000     
  0.50000000000000000     
  0.50000000000000000     
  0.50000000000000000     
  0.50000000000000000     
  0.50000000000000000     
  0.50000000000000000     
  0.50000000000000000     
  0.50000000000000000     
  0.50000000000000000     
  0.50000000000000000     
  0.50000000000000000     
  0.50000000000000000     
  0.50000000000000000     
  0.50000000000000000     
  0.50000000000000000     
  0.50000000000000000     
  0.50000000000000000     
  0.50000000000000000     
  0.50000000000000000     
  0.50000000000000000     
  0.50000000000000000     
  0.50000000000000000     
  0.50000000000000000     
  0.50000000000000000     
  0.50000000000000000     
  0.50000000000000000     
  0.50000000000000000     
  0.50000000000000000     
  0.50000000000000000     
  0.50000000000000000     
  0.50000000000000000     
  0.50000000000000000     
  0.50000000000000000     
  0.50000000000000000     
  0.50000000000000000     
  0.50000000000000000     
  0.50000000000000000     
  0.50000000000000000     
  0.50000000000000000     
  0.50000000000000000     
  0.50000000000000000     
  0.50000000000000000     
  0.50000000000000000     
  0.50000000000000000     
  0.50000000000000000     
  0.50000000000000000     
  0.50000000000000000     
  0.50000000000000000     
  0.50000000000000000     
  0.50000000000000000     
  0.50000000000000000     
  0.50000000000000000     
  0.50000000000000000     
  0.50000000000000000     
  0.50000000000000000     
  0.50000000000000000     
  0.50000000000000000     
  0.50000000000000000     
  0.50000000000000000     
  0.50000000000000000     
  0.50000000000000000     
  0.50000000000000000     
  0.50000000000000000     
  0.50000000000000000     
  0.50000000000000000     
  0.50000000000000000     
  0.50000000000000000     
  0.50000000000000000     
  0.50000000000000000     
  0.50000000000000000     
  0.50000000000000000     
  0.50000000000000000     
  0.50000000000000000     
  0.50000000000000000     
  0.50000000000000000     
  0.50000000000000000     
  0.50000000000000000     
  0.50000000000000000     
  0.50000000000000000     
  0.50000000000000000     
  0.50000000000000000     
  0.50000000000000000     
  0.50000000000000000     
  0.50000000000000000     
  0.50000000000000000     
  0.50000000000000000     
  0.50000000000000000     
  0.50000000000000000     
  0.50000000000000000     
  0.50000000000000000     
  0.50000000000000000     
  0.50000000000000000     
  0.50000000000000000     
  0.50000000000000000     
  0.50000000000000000     
  0.50000000000000000     
  0.50000000000000000     
  0.50000000000000000     
  0.50000000000000000     
  0.50000000000000000     
  0.50000000000000000     
  0.50000000000000000     
  0.50000000000000000     
  0.50000000000000000     
  0.50000000000000000     
  0.50000000000000000     
  0.50000000000000000     
  0.50000000000000000     
  0.50000000000000000     
  0.50000000000000000     
  0.50000000000000000     
  0.50000000000000000     
  0.50000000000000000     
  0.50000000000000000     
  0.50000000000000000     
  0.50000000000000000     
  0.50000000000000000     
  0.50000000000000000     
  0.50000000000000000     
  0.50000000000000000     
  0.50000000000000000     
  0.50000000000000000     
  0.50000000000000000     
  0.50000000000000000     
  0.50000000000000000     
  0.50000000000000000     
  0.50000000000000000     
  0.50000000000000000     
  0.50000000000000000     
  0.50000000000000000     
  0.50000000000000000     
  0.50000000000000000     
  0.50000000000000000     
  0.50000000000000000     
  0.50000000000000000     
  0.50000000000000000     
  0.50000000000000000     
  0.50000000000000000     
  0.50000000000000000     
  0.50000000000000000     
  0.50000000000000000     
  0.50000000000000000     
  0.50000000000000000     
  0.50000000000000000     
  0.50000000000000000     
  0.50000000000000000     
  0.50000000000000000     
  0.50000000000000000     
  0.50000000000000000     
  0.50000000000000000     
  0.50000000000000000     
  0.50000000000000000     
  0.50000000000000000     
  0.50000000000000000     
  0.50000000000000000     
  0.50000000000000000     
  0.50000000000000000     
  0.50000000000000000     
  0.50000000000000000     
  0.50000000000000000     
  0.50000000000000000     
  0.50000000000000000     
  0.50000000000000000     
  0.50000000000000000     
  0.50000000000000000     
  0.50000000000000000     
  0.50000000000000000     
  0.50000000000000000     
  0.50000000000000000     
  0.50000000000000000     
  0.50000000000000000     
  0.50000000000000000     
  0.50000000000000000     
  0.50000000000000000     
  0.50000000000000000     
  0.50000000000000000     
  0.50000000000000000     
  0.50000000000000000     
  0.50000000000000000     
  0.50000000000000000     
  0.50000000000000000     
  0.50000000000000000     
  0.50000000000000000     
  0.50000000000000000     
  0.50000000000000000     
  0.50000000000000000     
  0.50000000000000000     
  0.50000000000000000     
  0.50000000000000000     
  0.50000000000000000     
  0.50000000000000000     
  0.50000000000000000     
  0.50000000000000000     
  0.50000000000000000     
