# vtk DataFile Version 5.1
Data.vtk
ASCII
DATASET UNSTRUCTURED_GRID
 
POINTS 500 float
   1.3778898299033879       -9.2540416385166857        1.6430880648706121     
   8.2468926424514297      -0.81755824848792780       -1.7936140043513531     
   3.5739076574611648       -5.6961888950963901       0.72002503838055121     
   2.4952618797102608       -7.0139520666470832       -2.1413937946620760     
 -0.63241110248154420       -9.3110222079163343       -1.7763260820637745     
 -0.10298474159944973       -7.7280619866273446       -2.3056480188814983     
  0.48032165263246657       -8.2179701378000889        2.6715509145928955     
   4.1247022382856215       -6.2992168415158840        1.3934788394838413     
   7.4128393990742039       -4.1229618549630889       -1.4419877007018178     
   8.0413177406793501       -3.6344413040493682       -3.5168625152984312     
  -3.3382759302858798       -8.3680329123157051       -2.3359467040946740     
   7.1292482015771279       -2.1027943806497569       -5.8036145683340248     
   4.8971494790173731       -6.6998773638634610        2.7569084380904498     
   5.4598171882584534E-002  -7.6427280934205664        1.1175732189369452     
  0.58687781928979921       -6.9877970534231659       -2.8742595558611685     
  -1.5978833479292478       -9.2941955630620683       -1.1467410531366993     
 -0.75773089110570524       -8.8252125612300283       -3.4338694226651572     
 -0.50376964145474123       -8.3565148990356075        1.6383757954890670     
   6.0504845330288930       -5.2356488508930132        3.1209904400465533     
   2.6146557391725764       -8.6735513933678554       -2.8609680265270416     
   5.0550420833328698       -5.8627403071488988      -0.31677377354348568     
   6.4515024583940699       -6.5644303500548729       -2.3492105000634420     
   7.7836740293867184       -5.0533573657052360        2.0301400019823110     
   4.9855164754576284       -5.4407341945506822        4.2973166210642795     
   1.5309377177960943       -8.4267464972394635       -1.0000185714552619     
   8.4587754491408553       -2.7532395856586587       -3.2927044879550822     
  0.66921191266317226       -6.8534111701098022        3.6486747029835871     
   6.0681749632372197       -3.5606162511819344       -2.8021716182425709     
   4.1321589458117405       -6.4612454588709634       -5.5681402893981220     
 -0.39103098781081430       -9.0824809917153395        2.7582405865289714     
   1.9698093800743626       -6.2474762160398907       -3.9356370821346274     
  -1.7108495469198652       -7.6009895429563175        4.3249300216893545     
   3.0672482627627549       -7.7684666500182900       -4.5264613626711681     
   1.2380095214225004       -7.5340403011939081        1.3700867276272719     
   6.9155898185932578       -6.3261381659507334       -1.4959923439789791     
   4.7312461836068023       -6.6977978687341260       -4.7944570776850579     
 -0.53459335682646969       -6.4067321203768879       -6.9912319447914610     
   4.2530502851890359       -6.1383528963449869        5.8721125930868450     
   4.0729610816266852       -7.4295352042093112        1.0859919575426868     
   2.6983014472578692       -7.4584170886689094        5.2288183649500581     
   5.5632716863194558       -3.7065365671531114       0.80976393533338786     
  -1.8695162152401406       -7.9692243322544742        2.9636056669332600     
   1.9437451251311140       -7.2310373925633336        5.8472234259597897     
   6.8779190382561630       -2.4241176794115198        5.9552843942640008     
  0.86354207347523204       -7.7450059497406318       -5.4265204850811912     
 -0.83858731759646543       -8.3671197393624794       -4.4201998112238776     
   7.3993934815743447       -3.5912073759496139        2.7993689144485789     
  -2.0838856015327121       -8.1628258848559270       -1.5131625735250038     
   5.4031956084965334       -6.3682977386915010       -2.5778797804442020     
   4.1659056866228799       -5.4843078256128130       -5.8806602980026636E-002
 -0.66563250103857940       -7.1881325606177997       0.36734614179133424     
   7.3227471242922726E-002  -8.5874363563761094       -4.0620999775810800     
   5.4030605016953457       -5.4885460151701997       0.54452352178551000     
   9.1028315610342059       -1.6225066138072293        2.1809740611310429     
   7.2171540028821308       -1.6296313695577147        5.4205086511872018     
   5.5869825591008606       -5.1038474056946592       -5.7060011248436240     
   8.4029064501716171       -2.5043934106422849        3.6551151134921351     
   2.1644386991869209       -7.6219873388639936       -5.2411990063905725     
   6.8605781041292140       -5.8710967438424655       -2.9516478018190453     
   3.3145964436722544       -6.4972656776558688        4.4659647638495645     
   9.0858728512362621       -2.6060117813811430      -0.62777752183486935     
   7.4097838820542838       -2.8764059071754309       -5.2030591064706995     
   7.2820431805944459       -4.6704801413934662        3.8258852011874871     
  0.26681729316197472       -6.4186869880780462       -1.0129281426666370     
   5.3403537383923494       -7.1700918483211273       -3.2108948490257130     
   3.3189412755275831       -6.3894218136770897       -6.1952807860478458     
 -0.31683985754880561       -8.3825822888144508       -1.5803912694240227     
  0.22810529836378163       -6.7783392600938104        5.5903434111942873     
   3.0999529143133371       -8.9775262893348078       0.20914036912127218     
   4.1633095363568353       -5.6060781847034766        3.3559232214397796     
   2.6247831348045327       -5.8919810146441209       -6.8656685193710505     
   3.3054357592414521       -7.7083080873550909        4.4616249982145391     
   4.2814700482868124       -4.1744999278107962        4.6978108193371551     
   7.5739705208132895       -4.1472298263233807       0.70909203154339717     
   8.7909916480089620       -1.7309753813018729        3.1380056162041128     
   4.3255594619623103       -6.1301686637532109       -1.9256246104006713     
   6.0759056258681792       -4.7554386731562870        5.5424754395311231     
   3.3272800360874655       -6.8677217507751571      -0.34194140198270628     
  0.74398204530595624       -6.1435707764345890       -2.3523495178962168     
  -1.1102968803825244       -9.4349344094296299        2.0864871830457991E-002
  0.87241743281691098       -9.4291181362393601       0.76199838978338286     
   3.4142431914094997       -6.5928518378559318       -2.1456959266836848     
   1.0927931093041348       -7.8318923853058520        3.3615383855215821     
   5.7289316076625809       -6.7827109697628076        3.3706821601252197     
   7.8680346323509136       -3.8798394691840774        3.6447030169697139     
   2.6846126067059024       -6.8880093258003239        2.1777969117230769     
   4.9067564456037767       -5.6760716765314259        1.4009564093812863     
   1.7404303197694184       -6.9646866293302807       -4.6180991238152789     
  -1.2535536476476814       -7.9368752101003235        6.1045255840161225E-002
   8.1116666961299142       -4.8914609161460092      -0.72536794571241692     
   4.3182681101102958       -7.2378917904882609       -1.5558563643821437     
  -1.1710027105669418       -6.8093473062457281        6.5153393386243810     
  -2.9975045054726617       -8.0442125435997855       0.91394679205726914     
   5.8854434532548687       -6.0168425674394026       -1.7328377554675114     
   2.6436433964023895       -8.2838011918122092       -3.7814093747000213     
   1.1640321061859638       -6.1381894672365211       -4.5540352142824858     
   7.8875905768532588       -3.1048157129655958        4.2764285791656205     
   9.0689133684483458      -0.21611770639525468      -0.44791195771041148     
  0.46434370818585630       -8.8364342733278320        3.4571825422574234     
   4.0267189857710930       -8.2162736147847522        2.5496953444461901     
   2.1196717807382628       -9.0359743340068182       -2.0268882048093340     
   7.3289643636672919       -3.8026223186519186       -4.6140622421109327     
   3.5657967419299279       -8.3038538793755325       -2.9295819839834270     
   9.3732551953093832       -1.3435336456185771      -0.59183988752472638     
   2.7985910913639751       -6.1139951151457277       0.24334763228853235     
   8.1338584103148115       -1.6150142073764235      -0.16710966947623868     
   3.0643297840650754       -8.8133092570657414       -1.7847967973238485     
   5.9170235691629269       -5.5553031384092399       -2.8517072499275860     
  -1.8962445286892542       -8.7646281686951273       0.38688516882848928     
   7.8022913008560941       -3.6502955870478311      -0.21935786900148047     
   4.1491297966990581       -3.7010591748771886       -6.1490247991071634     
   2.1227387622001075       -8.2570734357570714        1.1704935340249887     
   6.3857733958168623       -2.8354333064214612       -6.0212379975625607     
   1.7424669657446565       -9.3311967964629474      -0.37771427799050961     
   1.3104318663568395       -6.8581448321369409      -0.54018115669936773     
   3.7740925117589419E-002  -8.3201566653127763       -3.0990971266001952     
   3.6296934653015716       -5.9402535599468838       -4.8780060793146243     
   6.6257549126756254       -3.4954164414771731       -1.6011482740519269     
   7.9323360879828533       -4.9360410591732604       -1.7091386280313821     
   2.0137226340440059E-002  -6.6641848771923886       0.87242218203937383     
   4.3552478615846120       -5.7134893064878769       -1.0170093913661542     
   8.6690802518663119       -3.6799191753977443       0.89011995068192273     
   7.2771318128604667       -3.1088893903038550        5.2115253815412528     
   9.2921000713640538      -0.67597657509073883       -1.3490151976642173     
  -1.6338042448632593       -6.9335662304788377       0.37059575846884574     
[...]
POINT_DATA  500
SCALARS radius float
LOOKUP_TABLE default
  0.50000000000000000     
  0.50000000000000000     
  0.50000000000000000     
  0.50000000000000000     
  0.50000000000000000     
  0.50000000000000000     
  0.50000000000000000     
  0.50000000000000000     
  0.50000000000000000     
  0.50000000000000000     
  0.50000000000000000     
  0.50000000000000000     
  0.50000000000000000     
  0.50000000000000000     
  0.50000000000000000     
  0.50000000000000000     
  0.50000000000000000     
  0.50000000000000000     
  0.50000000000000000     
  0.50000000000000000     
  0.50000000000000000     
  0.50000000000000000     
  0.50000000000000000     
  0.50000000000000000     
  0.50000000000000000     
  0.50000000000000000     
  0.50000000000000000     
  0.50000000000000000     
  0.50000000000000000     
  0.50000000000000000     
  0.50000000000000000     
  0.50000000000000000     
  0.50000000000000000     
  0.50000000000000000     
  0.50000000000000000     
  0.50000000000000000     
  0.50000000000000000     
  0.50000000000000000     
  0.50000000000000000     
  0.50000000000000000     
  0.50000000000000000     
  0.50000000000000000     
  0.50000000000000000     
  0.50000000000000000     
  0.50000000000000000     
  0.50000000000000000     
  0.50000000000000000     
  0.50000000000000000     
  0.50000000000000000     
  0.50000000000000000     
  0.50000000000000000     
  0.50000000000000000     
  0.50000000000000000     
  0.50000000000000000     
  0.50000000000000000     
  0.50000000000000000     
  0.50000000000000000     
  0.50000000000000000     
  0.50000000000000000     
  0.50000000000000000     
  0.50000000000000000     
  0.50000000000000000     
  0.50000000000000000     
  0.50000000000000000     
  0.50000000000000000     
  0.50000000000000000     
  0.50000000000000000     
  0.50000000000000000     
  0.50000000000000000     
  0.50000000000000000     
  0.50000000000000000     
  0.50000000000000000     
  0.50000000000000000     
  0.50000000000000000     
  0.50000000000000000     
  0.50000000000000000     
  0.50000000000000000     
  0.50000000000000000     
  0.50000000000000000     
  0.50000000000000000     
  0.50000000000000000     
  0.50000000000000000     
  0.50000000000000000     
  0.50000000000000000     
  0.50000000000000000     
  0.50000000000000000     
  0.50000000000000000     
  0.50000000000000000     
  0.50000000000000000     
  0.50000000000000000     
  0.50000000000000000     
  0.50000000000000000     
  0.50000000000000000     
  0.50000000000000000     
  0.50000000000000000     
  0.50000000000000000     
  0.50000000000000000     
  0.50000000000000000     
  0.50000000000000000     
  0.50000000000000000     
  0.50000000000000000     
  0.50000000000000000     
  0.50000000000000000     
  0.50000000000000000     
  0.50000000000000000     
  0.50000000000000000     
  0.50000000000000000     
  0.50000000000000000     
  0.50000000000000000     
  0.50000000000000000     
  0.50000000000000000     
  0.50000000000000000     
  0.50000000000000000     
  0.50000000000000000     
  0.50000000000000000     
  0.50000000000000000     
  0.50000000000000000     
  0.50000000000000000     
  0.50000000000000000     
  0.50000000000000000     
  0.50000000000000000     
  0.50000000000000000     
  0.50000000000000000     
  0.50000000000000000     
  0.50000000000000000     
  0.50000000000000000     
  0.50000000000000000     
  0.50000000000000000     
  0.50000000000000000     
  0.50000000000000000     
  0.50000000000000000     
  0.50000000000000000     
  0.50000000000000000     
  0.50000000000000000     
  0.50000000000000000     
  0.50000000000000000     
  0.50000000000000000     
  0.50000000000000000     
  0.50000000000000000     
  0.50000000000000000     
  0.50000000000000000     
  0.50000000000000000     
  0.50000000000000000     
  0.50000000000000000     
  0.50000000000000000     
  0.50000000000000000     
  0.50000000000000000     
  0.50000000000000000     
  0.50000000000000000     
  0.50000000000000000     
  0.50000000000000000     
  0.50000000000000000     
  0.50000000000000000     
  0.50000000000000000     
  0.50000000000000000     
  0.50000000000000000     
  0.50000000000000000     
  0.50000000000000000     
  0.50000000000000000     
  0.50000000000000000     
  0.50000000000000000     
  0.50000000000000000     
  0.50000000000000000     
  0.50000000000000000     
  0.50000000000000000     
  0.50000000000000000     
  0.50000000000000000     
  0.50000000000000000     
  0.50000000000000000     
  0.50000000000000000     
  0.50000000000000000     
  0.50000000000000000     
  0.50000000000000000     
  0.50000000000000000     
  0.50000000000000000     
  0.50000000000000000     
  0.50000000000000000     
  0.50000000000000000     
  0.50000000000000000     
  0.50000000000000000     
  0.50000000000000000     
  0.50000000000000000     
  0.50000000000000000     
  0.50000000000000000     
  0.50000000000000000     
  0.50000000000000000     
  0.50000000000000000     
  0.50000000000000000     
  0.50000000000000000     
  0.50000000000000000     
  0.50000000000000000     
  0.50000000000000000     
  0.50000000000000000     
  0.50000000000000000     
  0.50000000000000000     
  0.50000000000000000     
  0.50000000000000000     
  0.50000000000000000     
  0.50000000000000000     
  0.50000000000000000     
  0.50000000000000000     
  0.50000000000000000     
  0.50000000000000000     
  0.50000000000000000     
  0.50000000000000000     
  0.50000000000000000     
  0.50000000000000000     
  0.50000000000000000     
  0.50000000000000000     
  0.50000000000000000     
  0.50000000000000000     
  0.50000000000000000     
  0.50000000000000000     
  0.50000000000000000     
  0.50000000000000000     
  0.50000000000000000     
  0.50000000000000000     
  0.50000000000000000     
  0.50000000000000000     
  0.50000000000000000     
  0.50000000000000000     
  0.50000000000000000     
  0.50000000000000000     
  0.50000000000000000     
  0.50000000000000000     
  0.50000000000000000     
  0.50000000000000000     
  0.50000000000000000     
  0.50000000000000000     
  0.50000000000000000     
  0.50000000000000000     
  0.50000000000000000     
  0.50000000000000000     
  0.50000000000000000     
  0.50000000000000000     
  0.50000000000000000     
  0.50000000000000000     
  0.50000000000000000     
  0.50000000000000000     
  0.50000000000000000     
  0.50000000000000000     
  0.50000000000000000     
  0.50000000000000000     
  0.50000000000000000     
  0.50000000000000000     
  0.50000000000000000     
  0.50000000000000000     
  0.50000000000000000     
  0.50000000000000000     
  0.50000000000000000     
  0.50000000000000000     
  0.50000000000000000     
  0.50000000000000000     
  0.50000000000000000     
  0.50000000000000000     
  0.50000000000000000     
  0.50000000000000000     
  0.50000000000000000     
  0.50000000000000000     
  0.50000000000000000     
  0.50000000000000000     
  0.50000000000000000     
  0.50000000000000000     
  0.50000000000000000     
  0.50000000000000000     
  0.50000000000000000     
  0.50000000000000000     
  0.50000000000000000     
  0.50000000000000000     
  0.50000000000000000     
  0.50000000000000000     
  0.50000000000000000     
  0.50000000000000000     
  0.50000000000000000     
  0.50000000000000000     
  0.50000000000000000     
  0.50000000000000000     
  0.50000000000000000     
  0.50000000000000000     
  0.50000000000000000     
  0.50000000000000000     
  0.50000000000000000     
  0.50000000000000000     
  0.50000000000000000     
  0.50000000000000000     
  0.50000000000000000     
  0.50000000000000000     
  0.50000000000000000     
  0.50000000000000000     
  0.50000000000000000     
  0.50000000000000000     
  0.50000000000000000     
  0.50000000000000000     
  0.50000000000000000     
  0.50000000000000000     
  0.50000000000000000     
  0.50000000000000000     
  0.50000000000000000     
  0.50000000000000000     
  0.50000000000000000     
  0.50000000000000000     
  0.50000000000000000     
  0.50000000000000000     
  0.50000000000000000     
  0.50000000000000000     
  0.50000000000000000     
  0.50000000000000000     
  0.50000000000000000     
  0.50000000000000000     
  0.50000000000000000     
  0.50000000000000000     
  0.50000000000000000     
  0.50000000000000000     
  0.50000000000000000     
  0.50000000000000000     
  0.50000000000000000     
  0.50000000000000000     
  0.50000000000000000     
  0.50000000000000000     
  0.50000000000000000     
  0.50000000000000000     
  0.50000000000000000     
  0.50000000000000000     
  0.50000000000000000     
  0.50000000000000000     
  0.50000000000000000     
  0.50000000000000000     
  0.50000000000000000     
  0.50000000000000000     
  0.50000000000000000     
  0.50000000000000000     
  0.50000000000000000     
  0.50000000000000000     
  0.50000000000000000     
  0.50000000000000000     
  0.50000000000000000     
  0.50000000000000000     
  0.50000000000000000     
  0.50000000000000000     
  0.50000000000000000     
  0.50000000000000000     
  0.50000000000000000     
  0.50000000000000000     
  0.50000000000000000     
  0.50000000000000000     
  0.50000000000000000     
  0.50000000000000000     
  0.50000000000000000     
  0.50000000000000000     
  0.50000000000000000     
  0.50000000000000000     
  0.50000000000000000     
  0.50000000000000000     
  0.50000000000000000     
  0.50000000000000000     
  0.50000000000000000     
  0.50000000000000000     
  0.50000000000000000     
  0.50000000000000000     
  0.50000000000000000     
  0.50000000000000000     
  0.50000000000000000     
  0.50000000000000000     
  0.50000000000000000     
  0.50000000000000000     
  0.50000000000000000     
  0.50000000000000000     
  0.50000000000000000     
  0.50000000000000000     
  0.50000000000000000     
  0.50000000000000000     
  0.50000000000000000     
  0.50000000000000000     
  0.50000000000000000     
  0.50000000000000000     
  0.50000000000000000     
  0.50000000000000000     
  0.50000000000000000     
  0.50000000000000000     
  0.50000000000000000     
  0.50000000000000000     
  0.50000000000000000     
  0.50000000000000000     
  0.50000000000000000     
  0.50000000000000000     
  0.50000000000000000     
  0.50000000000000000     
  0.50000000000000000     
  0.50000000000000000     
  0.50000000000000000     
  0.50000000000000000     
  0.50000000000000000     
  0.50000000000000000     
  0.50000000000000000     
  0.50000000000000000     
  0.50000000000000000     
  0.50000000000000000     
  0.50000000000000000     
  0.50000000000000000     
  0.50000000000000000     
  0.50000000000000000     
  0.50000000000000000     
  0.50000000000000000     
  0.50000000000000000     
  0.50000000000000000     
  0.50000000000000000     
  0.50000000000000000     
  0.50000000000000000     
  0.50000000000000000     
  0.50000000000000000     
  0.50000000000000000     
  0.50000000000000000     
  0.50000000000000000     
  0.50000000000000000     
  0.50000000000000000     
  0.50000000000000000     
  0.50000000000000000     
  0.50000000000000000     
  0.50000000000000000     
  0.50000000000000000     
  0.50000000000000000     
  0.50000000000000000     
  0.50000000000000000     
  0.50000000000000000     
  0.50000000000000000     
  0.50000000000000000     
  0.50000000000000000     
  0.50000000000000000     
  0.50000000000000000     
  0.50000000000000000     
  0.50000000000000000     
  0.50000000000000000     
  0.50000000000000000     
  0.50000000000000000     
  0.50000000000000000     
  0.50000000000000000     
  0.50000000000000000     
  0.50000000000000000     
  0.50000000000000000     
  0.50000000000000000     
  0.50000000000000000     
  0.50000000000000000     
  0.50000000000000000     
  0.50000000000000000     
  0.50000000000000000     
  0.50000000000000000     
  0.50000000000000000     
  0.50000000000000000     
  0.50000000000000000     
  0.50000000000000000     
  0.50000000000000000     
  0.50000000000000000     
  0.50000000000000000     
  0.50000000000000000     
  0.50000000000000000     
  0.50000000000000000     
  0.50000000000000000     
  0.50000000000000000     
  0.50000000000000000     
  0.50000000000000000     
  0.50000000000000000     
  0.50000000000000000     
  0.50000000000000000     
  0.50000000000000000     
  0.50000000000000000     
  0.50000000000000000     
  0.50000000000000000     
  0.50000000000000000     
  0.50000000000000000     
  0.50000000000000000     
  0.50000000000000000     
  0.50000000000000000     
  0.50000000000000000     
  0.50000000000000000     
  0.50000000000000000     
  0.50000000000000000     
  0.50000000000000000     
  0.50000000000000000     
  0.50000000000000000     
  0.50000000000000000     
  0.50000000000000000     
  0.50000000000000000     
  0.50000000000000000     
  0.50000000000000000     
  0.50000000000000000     
  0.50000000000000000     
  0.50000000000000000     
  0.50000000000000000     
  0.50000000000000000     
  0.50000000000000000     
  0.50000000000000000     
  0.50000000000000000     
  0.50000000000000000     
  0.50000000000000000     
  0.50000000000000000     
  0.50000000000000000     
  0.50000000000000000     
  0.50000000000000000     
  0.50000000000000000     
  0.50000000000000000     
