# vtk DataFile Version 5.1
Data.vtk
ASCII
DATASET UNSTRUCTURED_GRID
 
POINTS 500 float
   3.5100504188949455       -8.7262513906231227        1.3333040315800209     
   5.4544392591626849       -3.7514327508531164       -1.1899569497458331     
   3.2443277262054697       -5.9111693725044301        1.0985878446536210     
   2.3478265495749029       -7.1194620850917634       -2.2188948028672444     
   1.5554391483268466       -9.2127589426324032       -1.7197098048564663     
  -3.6309483663741079E-002  -7.4995101372459496       -2.1877368342085259     
   1.2947199980479114       -8.1410341921559777        2.4034861073391616     
   4.0012635126205973       -6.4381037815736546        1.4928593678611266     
   7.5924976038546044       -3.7385334276868791       -1.4965906815519059     
   8.4532246477721493       -2.1771569121706862       -3.5036614214588417     
  -2.1665215460044926       -9.1211605048757765       -1.4770892599368313     
   6.6511031999899215       -1.7368978786554379       -6.4593410436201255     
   5.1812207685485951       -6.3995187816009143        2.6975367428994135     
  0.24406165659817788       -7.6247078489814237       0.84443867895594882     
  0.62287505517283925       -6.9101468794332170       -2.6557540713045182     
  0.65368544974447007       -9.3876032625747765       -1.3005589327761071     
  0.22196899130364148       -8.8445249382434223       -3.4612077968663759     
   1.8853287402426405E-002  -8.5193925704387912        1.2302689893518970     
   6.0596529971638393       -5.1027522466804811        3.3852956089604951     
   4.4536329081656945       -7.9368079491958348       -2.7245115870415333     
   4.9631852460802746       -5.7328828367342712      -0.23712160318336895     
   7.5969129004746812       -5.1928144122631696       -2.3604401694155386     
   8.4537844236304149       -3.4682197411323101        2.4473470271078184     
   4.9962600157026769       -5.4913584500804440        4.3595964951103179     
   1.9970696315876066       -8.3031207424956115       -1.0091335877780661     
   8.5447432892013797       -1.1940753361595564       -3.3438155809395824     
  0.58740632047360242       -7.0915860502954828        3.2670077717654906     
   4.9120031196431002       -4.7579271395299889       -3.3981886356519753     
   4.9995697499244356       -5.8658655363899328       -5.5527399905327437     
   1.9034438530050897       -8.9454890672036544        2.4624610191958154     
   1.8544172857541477       -6.4597269587780781       -3.9030877087482421     
  -1.0046106379475725       -8.8935132704459470        3.1786448455238210     
   4.3505693012582594       -7.1090975127494458       -4.5393001747799726     
   1.2334802026645941       -7.4039070687346458        1.1877485964599430     
   8.0062511661217570       -4.8451897540075182       -1.5167725208867859     
   5.7270910914238220       -5.6935045443134022       -4.8828453019511047     
  -3.7198399895263550       -8.0687416603350588       -3.3627829148570991     
   4.4186272636164414       -5.8030805041414428        6.0467776180445751     
   4.5113338075062543       -7.2166353292861638       0.99775186572967489     
   3.7048468497832290       -7.0861530924414193        5.1291853857684639     
   3.8528936887107843       -5.3019486245829661        1.6136286885188305     
  -1.7001413687524858       -8.0555548797052197        2.2446243224766942     
   2.8490779495373726       -7.0768659224156316        5.6504600972111065     
   4.5956075640737852       -3.9790677029785377        5.5597970401371084     
   1.5039224293461877       -7.6489412337515459       -5.4294997903505164     
  0.53580067527560837       -8.4411625766246239       -4.3208930624475173     
   7.1529999483487234       -3.4375837406119674        3.3805794142327579     
  -1.9873365717101683       -8.1910599663199477       -1.7991065675436277     
   5.9461615094969593       -5.9169045743677335       -2.5383525147241950     
   3.4615926623343953       -5.8163403828715223       0.11227744314944858     
  -1.0636032856168181       -6.8267693409443613       -1.4226960265132342E-002
   1.8032307145571105       -8.5796899999261402       -3.6587868603967970     
   4.9213218170630046       -5.2462494087438856       0.63570310272606334     
   9.0635777010134717      -0.35868592069163890        2.7533113703153127     
   5.9140202911047517       -3.1468885275727305        4.8957480455808700     
   6.2369856205843748       -4.2953846791546955       -5.7358320722735181     
   8.3190425082856585       -1.4049590898382840        4.1936559613646871     
   3.4050089948958422       -7.3407959066988280       -4.9762588060767641     
   7.8364388389497028       -4.4529729350378116       -3.0015882876835054     
   3.2755809241139966       -6.4843401548652020        4.3998317938418854     
   9.3297993659061564       -1.0084527935167888      -0.44703205339301133     
   7.5737930451582027       -1.6922213444940999       -5.2413968074272690     
   7.8789111663406244       -3.3555347389336032        4.1107304678830339     
   2.0055009834567599E-003  -6.5682143187484581       -1.0719520750857470     
   6.6248029359109832       -5.9599001860765046       -3.2730914992217972     
   4.1062797082059763       -5.9540127522012716       -6.1570160850176450     
  -2.5789717283499835E-002  -8.3467654139593321       -1.6566663673902582     
  -1.2387837824175059       -7.8827385219664494        5.0086214104714344     
   4.7993547030009927       -8.1971504678769609      -0.12797819867302285     
   4.1667162560261302       -5.4938503053621046        3.6294805119465048     
   2.2400552026320044       -6.7161751374383512       -6.3344491948861616     
   4.6157886919696089       -7.0049191388159633        4.4582135102183411     
   2.0720393173292426       -5.4073616482408982        4.9297511847536848     
   7.3727750688544855       -4.2206535557384530       0.75179541841455844     
   8.1717287874017561      -0.92523013102152174        3.3204198564745395     
   4.1851283118807565       -6.1404321028197666       -2.0133994443088521     
   6.0475464590669290       -4.4087615864948750        5.8514106135854211     
   3.2379022861430475       -6.6774307540543205      -0.35043789596958513     
  0.75850979939934637       -5.9193449550848802       -2.6309309489927486     
   1.0837440493407287       -9.4349563533674043      -0.23502891284768820     
   2.9743545125151472       -9.0108735022245643       0.45497046912716937     
   3.2646420720115352       -6.6299601447562893       -2.1905433265885508     
   1.3229500284321218       -7.7689041479722496        3.3314067095119384     
   6.9347799812590489       -5.5965649332727594        3.2522030508773554     
   8.1266134715024023       -2.3907434176420974        4.1963074179036663     
   2.5241607484592694       -7.0102667253450859        2.2000262349746484     
   4.7342951009237364       -5.7577577031030014        1.4755402998673675     
   1.8572540340109061       -7.1012745506501327       -4.6708664984690760     
 -0.95837611882350138       -7.7178873618316226      -0.47163726871887823     
   8.8984817813356560       -3.1505692165311618      -0.84844707658231544     
   4.8003590244745986       -6.8309581931143502       -1.6325199974624558     
  -4.3628146634294493       -8.4013311926638803       0.79599739866258190     
  -3.3987342417723689       -8.8656403772436843       0.31372850384030360     
   6.3235855879551863       -5.5597487525249001       -1.6841245587373914     
   4.4285551726229553       -7.5686933236960927       -3.6541528611160117     
   1.5546045760476024E-002  -7.0197777076489762       -4.8368150512346073     
   7.8673475931146530       -1.8177383746978000        4.9933690243967517     
   6.3117752324833409       -3.1859729781663777       0.56575372697073900     
   2.3758740861303411       -8.5833971676448737        3.3060903534277948     
   5.4479200823996878       -7.3526843675365177        2.5511439255693054     
   4.3118467137354815       -8.2681672155382895       -1.7916764934062159     
   7.8869348902979990       -2.4626633972911538       -4.6820992950053100     
   5.2247845719454151       -7.3498049419179186       -2.9707279259250838     
   8.3033652338680231      -0.83478875857300916      -0.23869374878334537     
   2.5368447491761938       -6.0590859924764651       0.40554993082340302     
   5.4553834878897547       -3.5749997263645699       0.18527658095458888     
   5.1481426096687128       -7.7117734879245239       -2.0406676702491993     
   6.2681546354003439       -5.0413723764790301       -2.9007051285075613     
  -1.1390913998368941       -8.6369833272279486      -0.12173611869483814     
   7.8063777259345617       -3.3870811276791688       0.23363264198235886     
   1.1466319100721327       -5.7889680374431034       -6.3062569918882536     
   2.6415115773042066       -8.1985756770973488       0.93755853766927888     
   6.4032532438048460       -2.6976679291651173       -6.3308727808096616     
   3.8624567962261227       -8.6567230213316542      -0.55836838139661893     
   1.0743406619245977       -6.6793691089853624      -0.46526726501090565     
  0.78235808967814835       -8.7310989013740095       -2.6409565915992004     
   3.3253459854631835       -5.8823243194060160       -5.2667552354415195     
   6.0607096488477161       -4.0202463076203463       -2.1158647373232453     
   8.7288526016382288       -3.2499150146473141       -1.8381300141072303     
 -0.50506481646721146       -6.9569794670822382       0.81767741789290804     
   4.2603079505118790       -5.7468837691782140       -1.0896069856808008     
   9.0271345740731626       -2.3177885854658404       0.96050231159429700     
   7.0286763484092409       -2.7204123565319036        5.7796455941444238     
   7.3007435811301891       -2.1280527111690324       -1.3645204838952880     
  -1.8539858474300654       -7.6338803577586543       -8.6396415757458225E-003
[...]
POINT_DATA  500
SCALARS radius float
LOOKUP_TABLE default
  0.50000000000000000     
  0.50000000000000000     
  0.50000000000000000     
  0.50000000000000000     
  0.50000000000000000     
  0.50000000000000000     
  0.50000000000000000     
  0.50000000000000000     
  0.50000000000000000     
  0.50000000000000000     
  0.50000000000000000     
  0.50000000000000000     
  0.50000000000000000     
  0.50000000000000000     
  0.50000000000000000     
  0.50000000000000000     
  0.50000000000000000     
  0.50000000000000000     
  0.50000000000000000     
  0.50000000000000000     
  0.50000000000000000     
  0.50000000000000000     
  0.50000000000000000     
  0.50000000000000000     
  0.50000000000000000     
  0.50000000000000000     
  0.50000000000000000     
  0.50000000000000000     
  0.50000000000000000     
  0.50000000000000000     
  0.50000000000000000     
  0.50000000000000000     
  0.50000000000000000     
  0.50000000000000000     
  0.50000000000000000     
  0.50000000000000000     
  0.50000000000000000     
  0.50000000000000000     
  0.50000000000000000     
  0.50000000000000000     
  0.50000000000000000     
  0.50000000000000000     
  0.50000000000000000     
  0.50000000000000000     
  0.50000000000000000     
  0.50000000000000000     
  0.50000000000000000     
  0.50000000000000000     
  0.50000000000000000     
  0.50000000000000000     
  0.50000000000000000     
  0.50000000000000000     
  0.50000000000000000     
  0.50000000000000000     
  0.50000000000000000     
  0.50000000000000000     
  0.50000000000000000     
  0.50000000000000000     
  0.50000000000000000     
  0.50000000000000000     
  0.50000000000000000     
  0.50000000000000000     
  0.50000000000000000     
  0.50000000000000000     
  0.50000000000000000     
  0.50000000000000000     
  0.50000000000000000     
  0.50000000000000000     
  0.50000000000000000     
  0.50000000000000000     
  0.50000000000000000     
  0.50000000000000000     
  0.50000000000000000     
  0.50000000000000000     
  0.50000000000000000     
  0.50000000000000000     
  0.50000000000000000     
  0.50000000000000000     
  0.50000000000000000     
  0.50000000000000000     
  0.50000000000000000     
  0.50000000000000000     
  0.50000000000000000     
  0.50000000000000000     
  0.50000000000000000     
  0.50000000000000000     
  0.50000000000000000     
  0.50000000000000000     
  0.50000000000000000     
  0.50000000000000000     
  0.50000000000000000     
  0.50000000000000000     
  0.50000000000000000     
  0.50000000000000000     
  0.50000000000000000     
  0.50000000000000000     
  0.50000000000000000     
  0.50000000000000000     
  0.50000000000000000     
  0.50000000000000000     
  0.50000000000000000     
  0.50000000000000000     
  0.50000000000000000     
  0.50000000000000000     
  0.50000000000000000     
  0.50000000000000000     
  0.50000000000000000     
  0.50000000000000000     
  0.50000000000000000     
  0.50000000000000000     
  0.50000000000000000     
  0.50000000000000000     
  0.50000000000000000     
  0.50000000000000000     
  0.50000000000000000     
  0.50000000000000000     
  0.50000000000000000     
  0.50000000000000000     
  0.50000000000000000     
  0.50000000000000000     
  0.50000000000000000     
  0.50000000000000000     
  0.50000000000000000     
  0.50000000000000000     
  0.50000000000000000     
  0.50000000000000000     
  0.50000000000000000     
  0.50000000000000000     
  0.50000000000000000     
  0.50000000000000000     
  0.50000000000000000     
  0.50000000000000000     
  0.50000000000000000     
  0.50000000000000000     
  0.50000000000000000     
  0.50000000000000000     
  0.50000000000000000     
  0.50000000000000000     
  0.50000000000000000     
  0.50000000000000000     
  0.50000000000000000     
  0.50000000000000000     
  0.50000000000000000     
  0.50000000000000000     
  0.50000000000000000     
  0.50000000000000000     
  0.50000000000000000     
  0.50000000000000000     
  0.50000000000000000     
  0.50000000000000000     
  0.50000000000000000     
  0.50000000000000000     
  0.50000000000000000     
  0.50000000000000000     
  0.50000000000000000     
  0.50000000000000000     
  0.50000000000000000     
  0.50000000000000000     
  0.50000000000000000     
  0.50000000000000000     
  0.50000000000000000     
  0.50000000000000000     
  0.50000000000000000     
  0.50000000000000000     
  0.50000000000000000     
  0.50000000000000000     
  0.50000000000000000     
  0.50000000000000000     
  0.50000000000000000     
  0.50000000000000000     
  0.50000000000000000     
  0.50000000000000000     
  0.50000000000000000     
  0.50000000000000000     
  0.50000000000000000     
  0.50000000000000000     
  0.50000000000000000     
  0.50000000000000000     
  0.50000000000000000     
  0.50000000000000000     
  0.50000000000000000     
  0.50000000000000000     
  0.50000000000000000     
  0.50000000000000000     
  0.50000000000000000     
  0.50000000000000000     
  0.50000000000000000     
  0.50000000000000000     
  0.50000000000000000     
  0.50000000000000000     
  0.50000000000000000     
  0.50000000000000000     
  0.50000000000000000     
  0.50000000000000000     
  0.50000000000000000     
  0.50000000000000000     
  0.50000000000000000     
  0.50000000000000000     
  0.50000000000000000     
  0.50000000000000000     
  0.50000000000000000     
  0.50000000000000000     
  0.50000000000000000     
  0.50000000000000000     
  0.50000000000000000     
  0.50000000000000000     
  0.50000000000000000     
  0.50000000000000000     
  0.50000000000000000     
  0.50000000000000000     
  0.50000000000000000     
  0.50000000000000000     
  0.50000000000000000     
  0.50000000000000000     
  0.50000000000000000     
  0.50000000000000000     
  0.50000000000000000     
  0.50000000000000000     
  0.50000000000000000     
  0.50000000000000000     
  0.50000000000000000     
  0.50000000000000000     
  0.50000000000000000     
  0.50000000000000000     
  0.50000000000000000     
  0.50000000000000000     
  0.50000000000000000     
  0.50000000000000000     
  0.50000000000000000     
  0.50000000000000000     
  0.50000000000000000     
  0.50000000000000000     
  0.50000000000000000     
  0.50000000000000000     
  0.50000000000000000     
  0.50000000000000000     
  0.50000000000000000     
  0.50000000000000000     
  0.50000000000000000     
  0.50000000000000000     
  0.50000000000000000     
  0.50000000000000000     
  0.50000000000000000     
  0.50000000000000000     
  0.50000000000000000     
  0.50000000000000000     
  0.50000000000000000     
  0.50000000000000000     
  0.50000000000000000     
  0.50000000000000000     
  0.50000000000000000     
  0.50000000000000000     
  0.50000000000000000     
  0.50000000000000000     
  0.50000000000000000     
  0.50000000000000000     
  0.50000000000000000     
  0.50000000000000000     
  0.50000000000000000     
  0.50000000000000000     
  0.50000000000000000     
  0.50000000000000000     
  0.50000000000000000     
  0.50000000000000000     
  0.50000000000000000     
  0.50000000000000000     
  0.50000000000000000     
  0.50000000000000000     
  0.50000000000000000     
  0.50000000000000000     
  0.50000000000000000     
  0.50000000000000000     
  0.50000000000000000     
  0.50000000000000000     
  0.50000000000000000     
  0.50000000000000000     
  0.50000000000000000     
  0.50000000000000000     
  0.50000000000000000     
  0.50000000000000000     
  0.50000000000000000     
  0.50000000000000000     
  0.50000000000000000     
  0.50000000000000000     
  0.50000000000000000     
  0.50000000000000000     
  0.50000000000000000     
  0.50000000000000000     
  0.50000000000000000     
  0.50000000000000000     
  0.50000000000000000     
  0.50000000000000000     
  0.50000000000000000     
  0.50000000000000000     
  0.50000000000000000     
  0.50000000000000000     
  0.50000000000000000     
  0.50000000000000000     
  0.50000000000000000     
  0.50000000000000000     
  0.50000000000000000     
  0.50000000000000000     
  0.50000000000000000     
  0.50000000000000000     
  0.50000000000000000     
  0.50000000000000000     
  0.50000000000000000     
  0.50000000000000000     
  0.50000000000000000     
  0.50000000000000000     
  0.50000000000000000     
  0.50000000000000000     
  0.50000000000000000     
  0.50000000000000000     
  0.50000000000000000     
  0.50000000000000000     
  0.50000000000000000     
  0.50000000000000000     
  0.50000000000000000     
  0.50000000000000000     
  0.50000000000000000     
  0.50000000000000000     
  0.50000000000000000     
  0.50000000000000000     
  0.50000000000000000     
  0.50000000000000000     
  0.50000000000000000     
  0.50000000000000000     
  0.50000000000000000     
  0.50000000000000000     
  0.50000000000000000     
  0.50000000000000000     
  0.50000000000000000     
  0.50000000000000000     
  0.50000000000000000     
  0.50000000000000000     
  0.50000000000000000     
  0.50000000000000000     
  0.50000000000000000     
  0.50000000000000000     
  0.50000000000000000     
  0.50000000000000000     
  0.50000000000000000     
  0.50000000000000000     
  0.50000000000000000     
  0.50000000000000000     
  0.50000000000000000     
  0.50000000000000000     
  0.50000000000000000     
  0.50000000000000000     
  0.50000000000000000     
  0.50000000000000000     
  0.50000000000000000     
  0.50000000000000000     
  0.50000000000000000     
  0.50000000000000000     
  0.50000000000000000     
  0.50000000000000000     
  0.50000000000000000     
  0.50000000000000000     
  0.50000000000000000     
  0.50000000000000000     
  0.50000000000000000     
  0.50000000000000000     
  0.50000000000000000     
  0.50000000000000000     
  0.50000000000000000     
  0.50000000000000000     
  0.50000000000000000     
  0.50000000000000000     
  0.50000000000000000     
  0.50000000000000000     
  0.50000000000000000     
  0.50000000000000000     
  0.50000000000000000     
  0.50000000000000000     
  0.50000000000000000     
  0.50000000000000000     
  0.50000000000000000     
  0.50000000000000000     
  0.50000000000000000     
  0.50000000000000000     
  0.50000000000000000     
  0.50000000000000000     
  0.50000000000000000     
  0.50000000000000000     
  0.50000000000000000     
  0.50000000000000000     
  0.50000000000000000     
  0.50000000000000000     
  0.50000000000000000     
  0.50000000000000000     
  0.50000000000000000     
  0.50000000000000000     
  0.50000000000000000     
  0.50000000000000000     
  0.50000000000000000     
  0.50000000000000000     
  0.50000000000000000     
  0.50000000000000000     
  0.50000000000000000     
  0.50000000000000000     
  0.50000000000000000     
  0.50000000000000000     
  0.50000000000000000     
  0.50000000000000000     
  0.50000000000000000     
  0.50000000000000000     
  0.50000000000000000     
  0.50000000000000000     
  0.50000000000000000     
  0.50000000000000000     
  0.50000000000000000     
  0.50000000000000000     
  0.50000000000000000     
  0.50000000000000000     
  0.50000000000000000     
  0.50000000000000000     
  0.50000000000000000     
  0.50000000000000000     
  0.50000000000000000     
  0.50000000000000000     
  0.50000000000000000     
  0.50000000000000000     
  0.50000000000000000     
  0.50000000000000000     
  0.50000000000000000     
  0.50000000000000000     
  0.50000000000000000     
  0.50000000000000000     
  0.50000000000000000     
  0.50000000000000000     
  0.50000000000000000     
  0.50000000000000000     
  0.50000000000000000     
  0.50000000000000000     
  0.50000000000000000     
  0.50000000000000000     
  0.50000000000000000     
  0.50000000000000000     
  0.50000000000000000     
  0.50000000000000000     
  0.50000000000000000     
  0.50000000000000000     
  0.50000000000000000     
  0.50000000000000000     
  0.50000000000000000     
  0.50000000000000000     
  0.50000000000000000     
  0.50000000000000000     
  0.50000000000000000     
  0.50000000000000000     
  0.50000000000000000     
  0.50000000000000000     
  0.50000000000000000     
  0.50000000000000000     
  0.50000000000000000     
  0.50000000000000000     
  0.50000000000000000     
  0.50000000000000000     
  0.50000000000000000     
  0.50000000000000000     
  0.50000000000000000     
  0.50000000000000000     
  0.50000000000000000     
  0.50000000000000000     
  0.50000000000000000     
  0.50000000000000000     
  0.50000000000000000     
  0.50000000000000000     
  0.50000000000000000     
  0.50000000000000000     
  0.50000000000000000     
  0.50000000000000000     
  0.50000000000000000     
  0.50000000000000000     
  0.50000000000000000     
  0.50000000000000000     
  0.50000000000000000     
  0.50000000000000000     
  0.50000000000000000     
  0.50000000000000000     
  0.50000000000000000     
  0.50000000000000000     
  0.50000000000000000     
  0.50000000000000000     
  0.50000000000000000     
  0.50000000000000000     
  0.50000000000000000     
  0.50000000000000000     
  0.50000000000000000     
  0.50000000000000000     
  0.50000000000000000     
  0.50000000000000000     
  0.50000000000000000     
  0.50000000000000000     
  0.50000000000000000     
  0.50000000000000000     
  0.50000000000000000     
  0.50000000000000000     
