# vtk DataFile Version 5.1
Data.vtk
ASCII
DATASET UNSTRUCTURED_GRID
 
POINTS 500 float
  0.21823125925492551       -8.4755048423428772        4.2856794187293525     
   7.0014695156756774       -4.4222991890842778       -1.7729163586701369     
  0.45508650236029530       -7.1417260283325099       -3.6726237051568402     
   3.3459506883178034       -7.8626727149829048       -1.6644904949628998     
   1.6313864664421684       -6.0966603253743576       -2.6309071621057414     
   3.0807649378992674       -6.4327339641593424       -2.7828878153539645     
   3.0645592342511367       -6.7212657515404111        4.4304493936297042     
   2.4182230729286873       -7.3565088850644402       0.57169454319124835     
  -3.7787716484939016       -8.1588539973990812       -3.0666077665439304     
  -2.3068171274171134       -8.6847101446702570       -3.0830951317815569     
   5.7137188890815809       -4.7052538992422317       -4.3787939832449485     
   8.3029626065624775       -4.4263113925493629       -1.1912805648849030     
   3.3795470311946794       -7.4196354860169320        2.8332718075880581     
  -2.4901774814741775       -8.1151376584043771       -3.8851461813753376     
   6.4204006729902670       -5.6138014585176670       0.91563272513609006     
   3.9602732479708571       -8.5897793711665216      -0.88026817044312233     
 -0.60097231639645066       -6.1703162579841093       -6.2156701509749723     
   4.4553473454680645       -5.1226470397444404      -0.37819804995930123     
   3.3277881637934299       -5.1620519869819148        6.1060681765637161     
   6.5275001473133685       -4.7835735624062758       -2.9811023396608838     
   2.4351111539589114       -7.2714896639982012       -1.1072640734966968     
  -1.9986912063177082       -9.1741571476035837       -1.4461491028061837     
   6.1269585236999742       -5.1714331080519642        5.0950593054276148     
   6.6298959936040083       -3.5574201157493417        5.7512744020739204     
 -0.97116530445859062       -7.4904127206931745       -4.1862849945939820     
   7.8767258476300062E-002  -6.7167261527220710       -1.5033834153585015     
   3.3700304485833286       -6.4395572920560893        1.8891455533509245     
 -0.76858272553201257       -7.7322395563353794      -0.99746226480148503     
   1.5474785555919770       -8.8359170662328061       -3.1110113779505704     
   5.3175086592073955       -7.7495302903454784        1.3844171406809775     
   9.1739150018600863       -1.8574621487785641       -1.6243338183240614     
 -0.79696075602662875       -8.3460916534114507        4.4668392953190912     
   5.9889488625299663       -5.5176321551737901       -4.8921069820688041     
 -0.74788098524818403       -6.3506960108154811       0.30475882115471076     
 -0.84564475729542909       -7.1678162070382623       -6.1728009663090893     
   4.2317266310573922       -8.3122400697628684       -1.8024891847415521     
   9.3418446007318128       -1.5170581533137812      -0.69901236732780636     
   3.0025076253799412       -7.3698844908536119        5.1888655788074614     
 -0.18033262965522254       -8.0098005258740930        2.9380190945630429     
  -7.7517024913282204E-002  -7.0918019593076789        4.6682066902438901     
   1.9720382312579032       -6.4695293625551953       0.69592767002782518     
   5.7013446607111495       -4.8092872883137785        1.6814943828055544     
 -0.58547477109643020       -7.0977360334715511        3.2482046533273738     
   6.5891952492973616       -2.4332375370621624        6.3435349482736223     
   2.8852986564100949       -5.1331238882307222       -7.4501550248188435     
  -2.2989224848150531       -7.7485336887052654       -2.6968364569784371     
   6.4701674648609746       -6.5124370802614688        2.4370963996724408     
   2.2938539311217290       -9.2189184511459548        1.3821901208848096E-002
   3.9572262454668206       -6.7750783887039185       -3.2988648671055159     
 -0.49366679954803616       -6.8783648571790730       -3.4977869338489902     
   1.1826091459239763       -8.3241238121404724       -1.5182205928432306     
   1.2763666339791158       -8.5133881773613709       -4.0179181832631636     
   1.8865738781163164       -7.3528762929388627      -0.27520012140787786     
  -1.2695930538447833       -6.6848353234312814       -1.1977252592334950     
   6.5597217101137444       -5.5001859110518767        4.1193573251821691     
   4.4093310615594303       -4.1505368116674397       -6.8935828964463921     
   4.8579595135081686       -4.8386881327735738        3.4044514839866751     
   5.5932301206870312       -7.3286589787393002       -2.2927700803570943     
   1.1823107866208113       -9.3190043919708820       -1.4171995042234995     
   4.4105462987431032       -6.1910575676730373        3.5553588603822588     
   1.6167164297491448       -6.4411483035620813        2.1489757389855213     
   8.0395355215527982       -4.5766598558180274       -2.1489902925829547     
   6.0419204947349829       -4.3567284601548488        5.8749819302581034     
  0.12101447764142169       -8.4035614805115717       -1.6233882206369079     
  -1.1606902644881258       -7.8286344478518171       -5.2520733590718898     
   1.3195330977973365       -6.9961879207399935       -6.2889428337004682     
   1.2974356267840848       -6.8921484435822373       -4.8087832234789172     
   9.3678015846503619      -0.52833244386936584      -0.54928727535135735     
 -0.45236576716010574       -6.8541255635919622      -0.63857068385859694     
   5.2120421370439907       -6.4769307522662958        1.8307772457265510     
  0.35166896566021599       -6.7334945714970900       -5.5798409099836972     
   4.4166645393183686       -5.3971626111815940        6.3385757533139948     
   5.9623719580582932       -3.9512854702041276        1.2337125089392111     
  0.71128514237896157       -7.4117525323232210        1.5483004062570658     
   6.6854704184111897       -6.5959081132538726        1.4264031575143077     
  0.23906397986793224       -9.4525722304672453      -0.91775411098863202     
   2.2471473980210317       -6.4454723729067700        6.5950639888929947     
   2.6630247579942523       -8.2703177214062809       0.19648082850409362     
  -3.1253718125379386       -8.8783534295755793       -1.2782529423981903     
   7.2977909734673467       -3.4432144856815770       -1.8224079140551928     
   4.5655936850900805       -5.9429378353617102       -1.9206356125005288     
 -0.95494857068067251       -7.2892000451537182       -2.7109891210818078     
   1.4768533557230574       -7.3659546760672363        2.5042229723164953     
   3.1837737910082944       -5.2700374451084171        2.8241392957734028     
   6.6732852437777890       -5.9277316145768930        3.2225368831914492     
   5.0627964848993949       -6.2869485429917829        2.8033002397313718     
   2.6587757911173231       -7.0113990630932639        1.4799719096515722     
   4.7980808459507607       -8.1944059595752474      -0.28383520152302089     
   7.6484586132330925       -3.8462377671117087        4.1174668402464487     
   1.7332582910877414       -6.1118947071041525       -4.3583124665003989     
   1.0322285458182423       -7.8660893837963179       -3.2953343719668249     
 -0.46763814473768567       -6.6666379205194746       -4.5527853035073429     
 -0.20334219992204397       -7.8280017517024376      -0.17801390035842884     
   2.7306054191844513       -7.8026489126851102       -2.5222495112733627     
  -2.6510990296902879       -8.8616007680335382       -2.1606972877116171     
   3.7467735971637124       -8.1965549554092476       -3.0005787318148451     
   1.1793048783950630       -8.4564863523243208        1.1273661666612500     
   4.0669163367656784       -5.2827114669202349        5.3790375467198421     
  -1.1934425888579949       -7.8085280026310144        5.2775620669524468     
  0.66077754998854921       -8.9317275845656958        3.1653601978265504     
   6.0855895723898152       -3.0993415633516972       -4.7010961010877219     
   8.8620293810444313       -2.1464300437846333       -2.5341730957858610     
   3.3677434974198657       -6.7226506984756664       -4.1049595684081162     
  -2.1343262586686129       -7.4729384397477538       0.30589226754557802     
   1.6878230942168178       -6.7073129115573824        3.2266250629814377     
   5.8325188623538828       -5.6516408239571660        2.7414059886169420     
   4.7169978319803487       -7.8431598048916076       -2.5404777734791768     
   8.1853878367609578       -1.5149916764760296       -2.1373019762169054     
   9.3590983218068846      -0.76628828981894825        1.2540235850945820     
   5.7593539318586648       -6.4886643787215368      -0.75772447766373863     
   3.6931026709913031       -6.4749608462978205       -1.9870416224504244     
   3.3280262390215314       -5.8479386965315383       -3.6099871009870270     
   1.4769256502447641       -5.4500036223634769       -6.1015111303992136     
   5.0968105384671984       -5.7506033014285647       -1.0908916837657348     
   3.1893087073050075       -8.9372838330860169      -0.33087468749956189     
  0.59988813056805446       -6.3277292785106871       -4.3191325985873439     
   1.7469318423176583       -5.3634297049874604       -7.3918259142909148     
   2.1698805946403672       -9.0244297416421713       -2.0254789528564254     
   1.5640846555102881       -7.5605479317933568       -4.1142708643867749     
   6.7765695245772104       -4.0222487227831936        3.1272728285015083     
 -0.35620630237754308       -8.2386260409370653       -4.7161833093479961     
   4.8589794488511764       -4.4576150470238263       0.66416912501512482     
   8.7650036893008245       -3.2541019918700274        1.6842309833248015     
   4.4760596118555496       -6.1506322655118293        5.6607821891779517     
  -4.3620149336253036       -8.2129050847137446       0.57220536581269987     
[...]
POINT_DATA  500
SCALARS radius float
LOOKUP_TABLE default
  0.50000000000000000     
  0.50000000000000000     
  0.50000000000000000     
  0.50000000000000000     
  0.50000000000000000     
  0.50000000000000000     
  0.50000000000000000     
  0.50000000000000000     
  0.50000000000000000     
  0.50000000000000000     
  0.50000000000000000     
  0.50000000000000000     
  0.50000000000000000     
  0.50000000000000000     
  0.50000000000000000     
  0.50000000000000000     
  0.50000000000000000     
  0.50000000000000000     
  0.50000000000000000     
  0.50000000000000000     
  0.50000000000000000     
  0.50000000000000000     
  0.50000000000000000     
  0.50000000000000000     
  0.50000000000000000     
  0.50000000000000000     
  0.50000000000000000     
  0.50000000000000000     
  0.50000000000000000     
  0.50000000000000000     
  0.50000000000000000     
  0.50000000000000000     
  0.50000000000000000     
  0.50000000000000000     
  0.50000000000000000     
  0.50000000000000000     
  0.50000000000000000     
  0.50000000000000000     
  0.50000000000000000     
  0.50000000000000000     
  0.50000000000000000     
  0.50000000000000000     
  0.50000000000000000     
  0.50000000000000000     
  0.50000000000000000     
  0.50000000000000000     
  0.50000000000000000     
  0.50000000000000000     
  0.50000000000000000     
  0.50000000000000000     
  0.50000000000000000     
  0.50000000000000000     
  0.50000000000000000     
  0.50000000000000000     
  0.50000000000000000     
  0.50000000000000000     
  0.50000000000000000     
  0.50000000000000000     
  0.50000000000000000     
  0.50000000000000000     
  0.50000000000000000     
  0.50000000000000000     
  0.50000000000000000     
  0.50000000000000000     
  0.50000000000000000     
  0.50000000000000000     
  0.50000000000000000     
  0.50000000000000000     
  0.50000000000000000     
  0.50000000000000000     
  0.50000000000000000     
  0.50000000000000000     
  0.50000000000000000     
  0.50000000000000000     
  0.50000000000000000     
  0.50000000000000000     
  0.50000000000000000     
  0.50000000000000000     
  0.50000000000000000     
  0.50000000000000000     
  0.50000000000000000     
  0.50000000000000000     
  0.50000000000000000     
  0.50000000000000000     
  0.50000000000000000     
  0.50000000000000000     
  0.50000000000000000     
  0.50000000000000000     
  0.50000000000000000     
  0.50000000000000000     
  0.50000000000000000     
  0.50000000000000000     
  0.50000000000000000     
  0.50000000000000000     
  0.50000000000000000     
  0.50000000000000000     
  0.50000000000000000     
  0.50000000000000000     
  0.50000000000000000     
  0.50000000000000000     
  0.50000000000000000     
  0.50000000000000000     
  0.50000000000000000     
  0.50000000000000000     
  0.50000000000000000     
  0.50000000000000000     
  0.50000000000000000     
  0.50000000000000000     
  0.50000000000000000     
  0.50000000000000000     
  0.50000000000000000     
  0.50000000000000000     
  0.50000000000000000     
  0.50000000000000000     
  0.50000000000000000     
  0.50000000000000000     
  0.50000000000000000     
  0.50000000000000000     
  0.50000000000000000     
  0.50000000000000000     
  0.50000000000000000     
  0.50000000000000000     
  0.50000000000000000     
  0.50000000000000000     
  0.50000000000000000     
  0.50000000000000000     
  0.50000000000000000     
  0.50000000000000000     
  0.50000000000000000     
  0.50000000000000000     
  0.50000000000000000     
  0.50000000000000000     
  0.50000000000000000     
  0.50000000000000000     
  0.50000000000000000     
  0.50000000000000000     
  0.50000000000000000     
  0.50000000000000000     
  0.50000000000000000     
  0.50000000000000000     
  0.50000000000000000     
  0.50000000000000000     
  0.50000000000000000     
  0.50000000000000000     
  0.50000000000000000     
  0.50000000000000000     
  0.50000000000000000     
  0.50000000000000000     
  0.50000000000000000     
  0.50000000000000000     
  0.50000000000000000     
  0.50000000000000000     
  0.50000000000000000     
  0.50000000000000000     
  0.50000000000000000     
  0.50000000000000000     
  0.50000000000000000     
  0.50000000000000000     
  0.50000000000000000     
  0.50000000000000000     
  0.50000000000000000     
  0.50000000000000000     
  0.50000000000000000     
  0.50000000000000000     
  0.50000000000000000     
  0.50000000000000000     
  0.50000000000000000     
  0.50000000000000000     
  0.50000000000000000     
  0.50000000000000000     
  0.50000000000000000     
  0.50000000000000000     
  0.50000000000000000     
  0.50000000000000000     
  0.50000000000000000     
  0.50000000000000000     
  0.50000000000000000     
  0.50000000000000000     
  0.50000000000000000     
  0.50000000000000000     
  0.50000000000000000     
  0.50000000000000000     
  0.50000000000000000     
  0.50000000000000000     
  0.50000000000000000     
  0.50000000000000000     
  0.50000000000000000     
  0.50000000000000000     
  0.50000000000000000     
  0.50000000000000000     
  0.50000000000000000     
  0.50000000000000000     
  0.50000000000000000     
  0.50000000000000000     
  0.50000000000000000     
  0.50000000000000000     
  0.50000000000000000     
  0.50000000000000000     
  0.50000000000000000     
  0.50000000000000000     
  0.50000000000000000     
  0.50000000000000000     
  0.50000000000000000     
  0.50000000000000000     
  0.50000000000000000     
  0.50000000000000000     
  0.50000000000000000     
  0.50000000000000000     
  0.50000000000000000     
  0.50000000000000000     
  0.50000000000000000     
  0.50000000000000000     
  0.50000000000000000     
  0.50000000000000000     
  0.50000000000000000     
  0.50000000000000000     
  0.50000000000000000     
  0.50000000000000000     
  0.50000000000000000     
  0.50000000000000000     
  0.50000000000000000     
  0.50000000000000000     
  0.50000000000000000     
  0.50000000000000000     
  0.50000000000000000     
  0.50000000000000000     
  0.50000000000000000     
  0.50000000000000000     
  0.50000000000000000     
  0.50000000000000000     
  0.50000000000000000     
  0.50000000000000000     
  0.50000000000000000     
  0.50000000000000000     
  0.50000000000000000     
  0.50000000000000000     
  0.50000000000000000     
  0.50000000000000000     
  0.50000000000000000     
  0.50000000000000000     
  0.50000000000000000     
  0.50000000000000000     
  0.50000000000000000     
  0.50000000000000000     
  0.50000000000000000     
  0.50000000000000000     
  0.50000000000000000     
  0.50000000000000000     
  0.50000000000000000     
  0.50000000000000000     
  0.50000000000000000     
  0.50000000000000000     
  0.50000000000000000     
  0.50000000000000000     
  0.50000000000000000     
  0.50000000000000000     
  0.50000000000000000     
  0.50000000000000000     
  0.50000000000000000     
  0.50000000000000000     
  0.50000000000000000     
  0.50000000000000000     
  0.50000000000000000     
  0.50000000000000000     
  0.50000000000000000     
  0.50000000000000000     
  0.50000000000000000     
  0.50000000000000000     
  0.50000000000000000     
  0.50000000000000000     
  0.50000000000000000     
  0.50000000000000000     
  0.50000000000000000     
  0.50000000000000000     
  0.50000000000000000     
  0.50000000000000000     
  0.50000000000000000     
  0.50000000000000000     
  0.50000000000000000     
  0.50000000000000000     
  0.50000000000000000     
  0.50000000000000000     
  0.50000000000000000     
  0.50000000000000000     
  0.50000000000000000     
  0.50000000000000000     
  0.50000000000000000     
  0.50000000000000000     
  0.50000000000000000     
  0.50000000000000000     
  0.50000000000000000     
  0.50000000000000000     
  0.50000000000000000     
  0.50000000000000000     
  0.50000000000000000     
  0.50000000000000000     
  0.50000000000000000     
  0.50000000000000000     
  0.50000000000000000     
  0.50000000000000000     
  0.50000000000000000     
  0.50000000000000000     
  0.50000000000000000     
  0.50000000000000000     
  0.50000000000000000     
  0.50000000000000000     
  0.50000000000000000     
  0.50000000000000000     
  0.50000000000000000     
  0.50000000000000000     
  0.50000000000000000     
  0.50000000000000000     
  0.50000000000000000     
  0.50000000000000000     
  0.50000000000000000     
  0.50000000000000000     
  0.50000000000000000     
  0.50000000000000000     
  0.50000000000000000     
  0.50000000000000000     
  0.50000000000000000     
  0.50000000000000000     
  0.50000000000000000     
  0.50000000000000000     
  0.50000000000000000     
  0.50000000000000000     
  0.50000000000000000     
  0.50000000000000000     
  0.50000000000000000     
  0.50000000000000000     
  0.50000000000000000     
  0.50000000000000000     
  0.50000000000000000     
  0.50000000000000000     
  0.50000000000000000     
  0.50000000000000000     
  0.50000000000000000     
  0.50000000000000000     
  0.50000000000000000     
  0.50000000000000000     
  0.50000000000000000     
  0.50000000000000000     
  0.50000000000000000     
  0.50000000000000000     
  0.50000000000000000     
  0.50000000000000000     
  0.50000000000000000     
  0.50000000000000000     
  0.50000000000000000     
  0.50000000000000000     
  0.50000000000000000     
  0.50000000000000000     
  0.50000000000000000     
  0.50000000000000000     
  0.50000000000000000     
  0.50000000000000000     
  0.50000000000000000     
  0.50000000000000000     
  0.50000000000000000     
  0.50000000000000000     
  0.50000000000000000     
  0.50000000000000000     
  0.50000000000000000     
  0.50000000000000000     
  0.50000000000000000     
  0.50000000000000000     
  0.50000000000000000     
  0.50000000000000000     
  0.50000000000000000     
  0.50000000000000000     
  0.50000000000000000     
  0.50000000000000000     
  0.50000000000000000     
  0.50000000000000000     
  0.50000000000000000     
  0.50000000000000000     
  0.50000000000000000     
  0.50000000000000000     
  0.50000000000000000     
  0.50000000000000000     
  0.50000000000000000     
  0.50000000000000000     
  0.50000000000000000     
  0.50000000000000000     
  0.50000000000000000     
  0.50000000000000000     
  0.50000000000000000     
  0.50000000000000000     
  0.50000000000000000     
  0.50000000000000000     
  0.50000000000000000     
  0.50000000000000000     
  0.50000000000000000     
  0.50000000000000000     
  0.50000000000000000     
  0.50000000000000000     
  0.50000000000000000     
  0.50000000000000000     
  0.50000000000000000     
  0.50000000000000000     
  0.50000000000000000     
  0.50000000000000000     
  0.50000000000000000     
  0.50000000000000000     
  0.50000000000000000     
  0.50000000000000000     
  0.50000000000000000     
  0.50000000000000000     
  0.50000000000000000     
  0.50000000000000000     
  0.50000000000000000     
  0.50000000000000000     
  0.50000000000000000     
  0.50000000000000000     
  0.50000000000000000     
  0.50000000000000000     
  0.50000000000000000     
  0.50000000000000000     
  0.50000000000000000     
  0.50000000000000000     
  0.50000000000000000     
  0.50000000000000000     
  0.50000000000000000     
  0.50000000000000000     
  0.50000000000000000     
  0.50000000000000000     
  0.50000000000000000     
  0.50000000000000000     
  0.50000000000000000     
  0.50000000000000000     
  0.50000000000000000     
  0.50000000000000000     
  0.50000000000000000     
  0.50000000000000000     
  0.50000000000000000     
  0.50000000000000000     
  0.50000000000000000     
  0.50000000000000000     
  0.50000000000000000     
  0.50000000000000000     
  0.50000000000000000     
  0.50000000000000000     
  0.50000000000000000     
  0.50000000000000000     
  0.50000000000000000     
  0.50000000000000000     
  0.50000000000000000     
  0.50000000000000000     
  0.50000000000000000     
  0.50000000000000000     
  0.50000000000000000     
  0.50000000000000000     
  0.50000000000000000     
  0.50000000000000000     
  0.50000000000000000     
  0.50000000000000000     
  0.50000000000000000     
  0.50000000000000000     
  0.50000000000000000     
  0.50000000000000000     
  0.50000000000000000     
  0.50000000000000000     
  0.50000000000000000     
  0.50000000000000000     
  0.50000000000000000     
  0.50000000000000000     
  0.50000000000000000     
  0.50000000000000000     
  0.50000000000000000     
  0.50000000000000000     
  0.50000000000000000     
  0.50000000000000000     
  0.50000000000000000     
  0.50000000000000000     
  0.50000000000000000     
  0.50000000000000000     
  0.50000000000000000     
  0.50000000000000000     
  0.50000000000000000     
  0.50000000000000000     
  0.50000000000000000     
  0.50000000000000000     
  0.50000000000000000     
  0.50000000000000000     
  0.50000000000000000     
  0.50000000000000000     
  0.50000000000000000     
  0.50000000000000000     
  0.50000000000000000     
  0.50000000000000000     
  0.50000000000000000     
  0.50000000000000000     
  0.50000000000000000     
  0.50000000000000000     
  0.50000000000000000     
  0.50000000000000000     
  0.50000000000000000     
  0.50000000000000000     
  0.50000000000000000     
  0.50000000000000000     
