# vtk DataFile Version 5.1
Data.vtk
ASCII
DATASET UNSTRUCTURED_GRID
 
POINTS 500 float
   4.8508215299126478       -4.3162422482835057        3.1353049761551142     
   6.7158483025321054       -5.0654134391690739       -1.6538977254758049     
   2.2911033826449114       -6.6376590715196988       -3.5464165159575658     
   1.9705057627623090       -8.3186748319192034      -0.82402341366316856     
   9.2926843091312907      -0.29932802063260178       -1.9474009450748047     
   4.3335864547520782       -5.8436026870749371       -2.5957221032948725     
   4.4652307890797296       -5.8865865402042630        4.2186147470869084     
   2.8738688566297377       -7.2183175293038540       0.55997030821105898     
   7.4420017616180765       -1.8021110180577913       -5.6229316840352617     
   1.6799301368186432       -6.1481470815864068       -2.8454670222867229     
   9.0634713666948947      -0.96111473028161265       -2.6654516884523511     
   2.3549713274028692       -9.0439519711812899       -1.7063436065106024     
   3.5094859172673134       -7.2722740366979295        2.9233947035064953     
   5.3784678162173361       -4.1931472767062532       -5.0894954074641321     
   5.0809482951619938       -6.7505552870823600       0.43627441597797134     
  -2.7828653585894680       -8.5147152494517098       -1.5818520927776216     
   8.3868043046378169       -2.5605415176941189       -3.4357046507336153     
   9.2852890174411726       -1.7054249410178406      -0.80767106070201511     
   8.3714337840889907       -1.5939328716993530        3.9859209474033985     
   7.6847170314082733       -5.0002583195836969       -2.4614910152119611     
   2.4829717876335327       -6.9070389015370353      -0.57625417705372584     
  0.27510262495859222       -6.5790989492117227       -1.8476710319464855     
   2.6643105040064929       -7.6354594618290506        4.9851430178735532     
   4.9465899883772417       -6.5006971104417248        4.8499834798778139     
   2.9290916383606445       -6.3586248219967922       -4.9001058408286919     
   2.9803397570773038       -5.9644180639559643       -1.2593954657483359     
   4.9443155917669097       -5.3404103612902940        1.8068310074791682     
   1.0039620356827457       -6.3162723898554978      -0.90232791810410873     
   1.6177622234943734       -6.7223835390190780       -5.0636279291008757     
 -0.80020404896600550       -8.3517415749041355        1.5654009338932602     
   5.2081680006589659       -7.8482336118721125       -1.2281772914036926     
   8.6932343515817561      -0.65994136000490322        3.7588224325236648     
   1.6667634231623631       -7.7966137324185292       -5.1655698998486343     
   7.8138227592855998       -2.8311744008460709       -1.0720103472271680     
   8.3931241147684386       0.14826904440223845       -4.1916556177051261     
  -3.0009026385915822       -8.6432992083347422       -2.5551202814515115     
   5.6893408954945262       -7.5981301036964473      -0.38775510087560999     
   3.9621328387437460       -4.9466048449231357        7.0717230161970495     
   1.1256363740857578       -7.5581912629247245        4.4242933418002170     
   6.8530584585824696       -2.4724883839908869        4.3744506157957392     
   6.3617330431965282       -3.1038945590944822        1.3324742768811777     
   8.8353166100162657       -2.5439233335700577        2.3830317569654427     
   4.5683898401975434       -4.9431868726254544        3.9000033350829719     
   7.1209414090978660       -4.8356667801536508        4.0190924454875327     
   5.8647274222694241       -5.0103874884291768       -5.4952041761565802     
   2.4574737188848501       -5.5224335090220560       -2.9733582671171819     
 -0.16256344970239869       -9.0478263054060566        2.8882034914811228     
  -3.7246493019962679       -8.6458734342159946       -1.2716201585546725     
   3.9200034364998073       -6.9094500974396951       -3.2998967455150381     
   3.4550451416895283       -5.1994797535764077       -3.0140140952344883     
  0.16812405686349274       -8.5870582048908481       -2.1616015280392440     
   5.9724768708214722       -2.9287195744505059       -6.7749931247497663     
   3.2026542584663109       -6.4788974688548180       -2.8272671831356577E-002
   1.9768427518065370       -6.2402607376706882       -1.1248956183445480     
   1.8919445767904202       -8.2305241803761380        4.3471554555351455     
   7.7243176493297234       -4.4243106429623413       -3.2779827045098773     
   8.0206040890042054       -2.8285399905729238       0.93502812845045458     
  -1.5977961181304019       -8.8863531073413533       -2.9545630505329470     
 -0.48930656584843851       -7.3114533444266598       -2.3999255543631071     
   5.1322808481382047       -6.1417912895017874        3.2257218072142044     
   4.2646452622213697       -6.0463344512493284        1.3673927281534448     
   2.6451257377667741       -8.7170424613583410       -2.6057384003570445     
   4.1368406959725057       -7.0852134706845016        4.7866157438002892     
 -0.55194061517035764       -8.0436110075631770       -1.7192375982619108     
   7.0337223350109133       -2.6594420730956663       -5.3088167207969832     
   5.2772216621860819       -4.6909846683342007       -6.2419484530772387     
   4.6836379174100182       -5.6218963965108690       -4.4961646155833623     
   8.4067698917607050       -4.3968455103929118        8.9503620811176063E-002
   2.5768113761208666       -5.5668480584648838       0.24077093226177337     
   4.8045947811442984       -6.8643776712395859        1.7255398697304569     
   7.9332946742852082       -3.0581795209400884       -4.1754018910934469     
   2.1795657147430769       -7.1367249862135029        5.8483062022168193     
   8.7659457526374887       -3.2385068589630559        1.6670501716860795     
   1.8619521586239878       -7.1540597876758918        2.0983184944239368     
 -0.70191925318316228       -9.3610365686428754        1.4555787093222905     
 -0.86029022856824522       -6.3864523037726242       -2.2017491430737639     
   5.6159071499987077       -5.1426119424268437        5.6747927078929727     
  0.70909418873319596       -8.1470562841097021       0.44115823855722858     
   2.3733159240050918       -5.3792850003138835      -0.72068244485956845     
   5.9099546207290627       -7.2579124457691666       -1.6270817135791404     
   5.8768345140335372       -4.3261449176850313       -1.3704582265346223     
   8.2913497977284454       0.65276452664853635       -3.3101786453816580     
   3.4086706446887840       -6.2585417854222776        2.9598888499287570     
   6.2909283130734828       -4.0575198743264371        1.6475463840860698     
   1.4114818645291261       -8.6797346035414229        3.5843622313347137     
   5.3532463499748957       -6.2040817528401542        2.2443618464190114     
   2.9068956066442384       -7.0706710681284557        1.5758108380131042     
  -2.5962806868326709       -9.1127064447240436      -0.67221951435170912     
   4.1457044611825093       -7.7208586934079673        3.6525327914590138     
   6.5284887796912718       -3.6072167162075472       -4.1714425027672686     
  0.87051684456918099       -7.8317202345467996       -3.4478438547734300     
   8.0643396412581829      -0.75376710191550367       -4.7631345980567108     
  0.92925563253591192       -7.2309988965536141        8.3879798041838982E-002
   1.8603589193616161       -8.2263523471845001       -2.0010216332302186     
  0.69097243960852062       -6.1493387404102613       -3.0353057461721527     
  -1.0136047569968216       -7.9004340569852527       -5.1774374649750570     
  0.41347116546705004       -8.6340387642480199        1.2628759757000245     
   7.4186584177435240       -3.1007556436376844        2.5286543144649261     
   7.5882172418219129       -1.7173672411952987        5.2927208970715576     
  0.37900299823083050       -6.9394325880581640        5.1710288564153801     
   8.2033273606798751       -4.1126761814851811       -2.4570111598148996     
   5.1923968355669032       -7.6418305009597667       -2.2082868177524380     
   4.1942281217352066       -6.4422243935540475       -4.1708375347433888     
   6.8068850431612304       -2.4208426119680171      -0.90714780143823037     
   4.1204449968179269       -5.6209621507858287        3.3167470319947570     
   6.1734241595137282       -5.6619665741380647        1.5952143676946453     
  -2.4711771436825707       -8.5127306783612600       -3.4156078955238063     
   7.0327037635728313       -6.2948840083430042       -1.0798886801203071     
   7.3353940583167052       -5.9852973185272109       0.65060164196070813     
   4.2439515349133474       -7.4692900473269592      -0.75675029993623943     
   4.9830075039046928       -5.5888770991111398       -1.3687377116848303     
   4.8840001650705664       -5.1171293610277848       -3.0089848394960836     
   7.5245318321330910       -3.9715271748924521       -4.1540287112609082     
   9.3312616951717864      -0.72664521719877018       -1.0099877188015260     
  -1.7753943593282655       -7.5748048116950875      -0.14444623789135125     
   8.9672376710345425       -4.4152882665460150E-002  -3.0569369159783020     
   7.1703509225366373       -3.6055300241497323       -5.0154985632034768     
 -0.99066032226425105       -8.1706369363020173       -2.6088649302398799     
   2.3287202798400548       -7.0722832462374736       -4.4481689808886546     
   7.4750571048741046       -3.5979031233149263       0.60074347026253794     
   2.6349925442981821       -5.4082691824475573       -3.9591722345001661     
   8.6718521921976262       -3.7858530257812006       0.83536522637905331     
   3.5428414435954783       -8.5946104488469555        1.9574964443765734     
   3.2292298124935113       -5.9752399059258812        5.2623344642875214     
   3.3343342110141755E-002  -6.9602511072761866       0.61965917056822506     
[...]
POINT_DATA  500
SCALARS radius float
LOOKUP_TABLE default
  0.50000000000000000     
  0.50000000000000000     
  0.50000000000000000     
  0.50000000000000000     
  0.50000000000000000     
  0.50000000000000000     
  0.50000000000000000     
  0.50000000000000000     
  0.50000000000000000     
  0.50000000000000000     
  0.50000000000000000     
  0.50000000000000000     
  0.50000000000000000     
  0.50000000000000000     
  0.50000000000000000     
  0.50000000000000000     
  0.50000000000000000     
  0.50000000000000000     
  0.50000000000000000     
  0.50000000000000000     
  0.50000000000000000     
  0.50000000000000000     
  0.50000000000000000     
  0.50000000000000000     
  0.50000000000000000     
  0.50000000000000000     
  0.50000000000000000     
  0.50000000000000000     
  0.50000000000000000     
  0.50000000000000000     
  0.50000000000000000     
  0.50000000000000000     
  0.50000000000000000     
  0.50000000000000000     
  0.50000000000000000     
  0.50000000000000000     
  0.50000000000000000     
  0.50000000000000000     
  0.50000000000000000     
  0.50000000000000000     
  0.50000000000000000     
  0.50000000000000000     
  0.50000000000000000     
  0.50000000000000000     
  0.50000000000000000     
  0.50000000000000000     
  0.50000000000000000     
  0.50000000000000000     
  0.50000000000000000     
  0.50000000000000000     
  0.50000000000000000     
  0.50000000000000000     
  0.50000000000000000     
  0.50000000000000000     
  0.50000000000000000     
  0.50000000000000000     
  0.50000000000000000     
  0.50000000000000000     
  0.50000000000000000     
  0.50000000000000000     
  0.50000000000000000     
  0.50000000000000000     
  0.50000000000000000     
  0.50000000000000000     
  0.50000000000000000     
  0.50000000000000000     
  0.50000000000000000     
  0.50000000000000000     
  0.50000000000000000     
  0.50000000000000000     
  0.50000000000000000     
  0.50000000000000000     
  0.50000000000000000     
  0.50000000000000000     
  0.50000000000000000     
  0.50000000000000000     
  0.50000000000000000     
  0.50000000000000000     
  0.50000000000000000     
  0.50000000000000000     
  0.50000000000000000     
  0.50000000000000000     
  0.50000000000000000     
  0.50000000000000000     
  0.50000000000000000     
  0.50000000000000000     
  0.50000000000000000     
  0.50000000000000000     
  0.50000000000000000     
  0.50000000000000000     
  0.50000000000000000     
  0.50000000000000000     
  0.50000000000000000     
  0.50000000000000000     
  0.50000000000000000     
  0.50000000000000000     
  0.50000000000000000     
  0.50000000000000000     
  0.50000000000000000     
  0.50000000000000000     
  0.50000000000000000     
  0.50000000000000000     
  0.50000000000000000     
  0.50000000000000000     
  0.50000000000000000     
  0.50000000000000000     
  0.50000000000000000     
  0.50000000000000000     
  0.50000000000000000     
  0.50000000000000000     
  0.50000000000000000     
  0.50000000000000000     
  0.50000000000000000     
  0.50000000000000000     
  0.50000000000000000     
  0.50000000000000000     
  0.50000000000000000     
  0.50000000000000000     
  0.50000000000000000     
  0.50000000000000000     
  0.50000000000000000     
  0.50000000000000000     
  0.50000000000000000     
  0.50000000000000000     
  0.50000000000000000     
  0.50000000000000000     
  0.50000000000000000     
  0.50000000000000000     
  0.50000000000000000     
  0.50000000000000000     
  0.50000000000000000     
  0.50000000000000000     
  0.50000000000000000     
  0.50000000000000000     
  0.50000000000000000     
  0.50000000000000000     
  0.50000000000000000     
  0.50000000000000000     
  0.50000000000000000     
  0.50000000000000000     
  0.50000000000000000     
  0.50000000000000000     
  0.50000000000000000     
  0.50000000000000000     
  0.50000000000000000     
  0.50000000000000000     
  0.50000000000000000     
  0.50000000000000000     
  0.50000000000000000     
  0.50000000000000000     
  0.50000000000000000     
  0.50000000000000000     
  0.50000000000000000     
  0.50000000000000000     
  0.50000000000000000     
  0.50000000000000000     
  0.50000000000000000     
  0.50000000000000000     
  0.50000000000000000     
  0.50000000000000000     
  0.50000000000000000     
  0.50000000000000000     
  0.50000000000000000     
  0.50000000000000000     
  0.50000000000000000     
  0.50000000000000000     
  0.50000000000000000     
  0.50000000000000000     
  0.50000000000000000     
  0.50000000000000000     
  0.50000000000000000     
  0.50000000000000000     
  0.50000000000000000     
  0.50000000000000000     
  0.50000000000000000     
  0.50000000000000000     
  0.50000000000000000     
  0.50000000000000000     
  0.50000000000000000     
  0.50000000000000000     
  0.50000000000000000     
  0.50000000000000000     
  0.50000000000000000     
  0.50000000000000000     
  0.50000000000000000     
  0.50000000000000000     
  0.50000000000000000     
  0.50000000000000000     
  0.50000000000000000     
  0.50000000000000000     
  0.50000000000000000     
  0.50000000000000000     
  0.50000000000000000     
  0.50000000000000000     
  0.50000000000000000     
  0.50000000000000000     
  0.50000000000000000     
  0.50000000000000000     
  0.50000000000000000     
  0.50000000000000000     
  0.50000000000000000     
  0.50000000000000000     
  0.50000000000000000     
  0.50000000000000000     
  0.50000000000000000     
  0.50000000000000000     
  0.50000000000000000     
  0.50000000000000000     
  0.50000000000000000     
  0.50000000000000000     
  0.50000000000000000     
  0.50000000000000000     
  0.50000000000000000     
  0.50000000000000000     
  0.50000000000000000     
  0.50000000000000000     
  0.50000000000000000     
  0.50000000000000000     
  0.50000000000000000     
  0.50000000000000000     
  0.50000000000000000     
  0.50000000000000000     
  0.50000000000000000     
  0.50000000000000000     
  0.50000000000000000     
  0.50000000000000000     
  0.50000000000000000     
  0.50000000000000000     
  0.50000000000000000     
  0.50000000000000000     
  0.50000000000000000     
  0.50000000000000000     
  0.50000000000000000     
  0.50000000000000000     
  0.50000000000000000     
  0.50000000000000000     
  0.50000000000000000     
  0.50000000000000000     
  0.50000000000000000     
  0.50000000000000000     
  0.50000000000000000     
  0.50000000000000000     
  0.50000000000000000     
  0.50000000000000000     
  0.50000000000000000     
  0.50000000000000000     
  0.50000000000000000     
  0.50000000000000000     
  0.50000000000000000     
  0.50000000000000000     
  0.50000000000000000     
  0.50000000000000000     
  0.50000000000000000     
  0.50000000000000000     
  0.50000000000000000     
  0.50000000000000000     
  0.50000000000000000     
  0.50000000000000000     
  0.50000000000000000     
  0.50000000000000000     
  0.50000000000000000     
  0.50000000000000000     
  0.50000000000000000     
  0.50000000000000000     
  0.50000000000000000     
  0.50000000000000000     
  0.50000000000000000     
  0.50000000000000000     
  0.50000000000000000     
  0.50000000000000000     
  0.50000000000000000     
  0.50000000000000000     
  0.50000000000000000     
  0.50000000000000000     
  0.50000000000000000     
  0.50000000000000000     
  0.50000000000000000     
  0.50000000000000000     
  0.50000000000000000     
  0.50000000000000000     
  0.50000000000000000     
  0.50000000000000000     
  0.50000000000000000     
  0.50000000000000000     
  0.50000000000000000     
  0.50000000000000000     
  0.50000000000000000     
  0.50000000000000000     
  0.50000000000000000     
  0.50000000000000000     
  0.50000000000000000     
  0.50000000000000000     
  0.50000000000000000     
  0.50000000000000000     
  0.50000000000000000     
  0.50000000000000000     
  0.50000000000000000     
  0.50000000000000000     
  0.50000000000000000     
  0.50000000000000000     
  0.50000000000000000     
  0.50000000000000000     
  0.50000000000000000     
  0.50000000000000000     
  0.50000000000000000     
  0.50000000000000000     
  0.50000000000000000     
  0.50000000000000000     
  0.50000000000000000     
  0.50000000000000000     
  0.50000000000000000     
  0.50000000000000000     
  0.50000000000000000     
  0.50000000000000000     
  0.50000000000000000     
  0.50000000000000000     
  0.50000000000000000     
  0.50000000000000000     
  0.50000000000000000     
  0.50000000000000000     
  0.50000000000000000     
  0.50000000000000000     
  0.50000000000000000     
  0.50000000000000000     
  0.50000000000000000     
  0.50000000000000000     
  0.50000000000000000     
  0.50000000000000000     
  0.50000000000000000     
  0.50000000000000000     
  0.50000000000000000     
  0.50000000000000000     
  0.50000000000000000     
  0.50000000000000000     
  0.50000000000000000     
  0.50000000000000000     
  0.50000000000000000     
  0.50000000000000000     
  0.50000000000000000     
  0.50000000000000000     
  0.50000000000000000     
  0.50000000000000000     
  0.50000000000000000     
  0.50000000000000000     
  0.50000000000000000     
  0.50000000000000000     
  0.50000000000000000     
  0.50000000000000000     
  0.50000000000000000     
  0.50000000000000000     
  0.50000000000000000     
  0.50000000000000000     
  0.50000000000000000     
  0.50000000000000000     
  0.50000000000000000     
  0.50000000000000000     
  0.50000000000000000     
  0.50000000000000000     
  0.50000000000000000     
  0.50000000000000000     
  0.50000000000000000     
  0.50000000000000000     
  0.50000000000000000     
  0.50000000000000000     
  0.50000000000000000     
  0.50000000000000000     
  0.50000000000000000     
  0.50000000000000000     
  0.50000000000000000     
  0.50000000000000000     
  0.50000000000000000     
  0.50000000000000000     
  0.50000000000000000     
  0.50000000000000000     
  0.50000000000000000     
  0.50000000000000000     
  0.50000000000000000     
  0.50000000000000000     
  0.50000000000000000     
  0.50000000000000000     
  0.50000000000000000     
  0.50000000000000000     
  0.50000000000000000     
  0.50000000000000000     
  0.50000000000000000     
  0.50000000000000000     
  0.50000000000000000     
  0.50000000000000000     
  0.50000000000000000     
  0.50000000000000000     
  0.50000000000000000     
  0.50000000000000000     
  0.50000000000000000     
  0.50000000000000000     
  0.50000000000000000     
  0.50000000000000000     
  0.50000000000000000     
  0.50000000000000000     
  0.50000000000000000     
  0.50000000000000000     
  0.50000000000000000     
  0.50000000000000000     
  0.50000000000000000     
  0.50000000000000000     
  0.50000000000000000     
  0.50000000000000000     
  0.50000000000000000     
  0.50000000000000000     
  0.50000000000000000     
  0.50000000000000000     
  0.50000000000000000     
  0.50000000000000000     
  0.50000000000000000     
  0.50000000000000000     
  0.50000000000000000     
  0.50000000000000000     
  0.50000000000000000     
  0.50000000000000000     
  0.50000000000000000     
  0.50000000000000000     
  0.50000000000000000     
  0.50000000000000000     
  0.50000000000000000     
  0.50000000000000000     
  0.50000000000000000     
  0.50000000000000000     
  0.50000000000000000     
  0.50000000000000000     
  0.50000000000000000     
  0.50000000000000000     
  0.50000000000000000     
  0.50000000000000000     
  0.50000000000000000     
  0.50000000000000000     
  0.50000000000000000     
  0.50000000000000000     
  0.50000000000000000     
  0.50000000000000000     
  0.50000000000000000     
  0.50000000000000000     
  0.50000000000000000     
  0.50000000000000000     
  0.50000000000000000     
  0.50000000000000000     
  0.50000000000000000     
  0.50000000000000000     
  0.50000000000000000     
  0.50000000000000000     
  0.50000000000000000     
  0.50000000000000000     
  0.50000000000000000     
  0.50000000000000000     
  0.50000000000000000     
  0.50000000000000000     
  0.50000000000000000     
  0.50000000000000000     
  0.50000000000000000     
  0.50000000000000000     
  0.50000000000000000     
  0.50000000000000000     
  0.50000000000000000     
  0.50000000000000000     
  0.50000000000000000     
  0.50000000000000000     
  0.50000000000000000     
  0.50000000000000000     
  0.50000000000000000     
  0.50000000000000000     
  0.50000000000000000     
  0.50000000000000000     
  0.50000000000000000     
  0.50000000000000000     
  0.50000000000000000     
  0.50000000000000000     
  0.50000000000000000     
  0.50000000000000000     
  0.50000000000000000     
  0.50000000000000000     
  0.50000000000000000     
  0.50000000000000000     
  0.50000000000000000     
  0.50000000000000000     
  0.50000000000000000     
  0.50000000000000000     
  0.50000000000000000     
  0.50000000000000000     
  0.50000000000000000     
  0.50000000000000000     
  0.50000000000000000     
  0.50000000000000000     
  0.50000000000000000     
  0.50000000000000000     
  0.50000000000000000     
  0.50000000000000000     
  0.50000000000000000     
  0.50000000000000000     
  0.50000000000000000     
  0.50000000000000000     
  0.50000000000000000     
  0.50000000000000000     
