# vtk DataFile Version 5.1
Data.vtk
ASCII
DATASET UNSTRUCTURED_GRID
 
POINTS 500 float
   1.2178879845949782       -7.2375476406967199        6.0314444263899993     
   1.5029142684504113       -6.8995691246246293       -3.4358451180466827     
   8.5545734551802290      -0.81003884335160625       -2.9901915324284181     
   7.3221932966359020       -3.9941620740997670       -1.9987281940651731     
   8.7979858676961626       -2.9473906314691392       -1.6344348072589387     
  -1.7939847495861867       -7.4335236574724233       -1.4287223285072268     
   1.1635756576819698       -6.0742463140357579        7.1928755425296078     
  -1.1325172738848588       -7.8475481793978892        1.1398151537527343     
   6.5379622167217315       -3.8492925324124809       -1.3914247775519317     
  -2.1853540583391426       -7.4460165876477902       -5.4202005324114610     
  -1.2111404260810887       -8.3009541042035764       -1.9211151744554655     
  -2.6467413119581495       -8.0862222072293477      -0.77284473926552422     
   5.5787480334736346       -5.7304154766943372        2.5325398902408498     
 -0.35409742088341456       -7.5446237418052640       -4.2648538276488352     
   5.7115898153959117       -4.6893926922166029        4.1600388110709012     
  -3.0841843705541447       -8.9849901876489504       -8.8304920125362604E-002
   6.0489043945524763       -3.6377834826051068       -3.6879572342046867     
   5.0749996834403994       -8.0299614999221518       0.11063079839674997     
   2.3964860068957514       -5.9667986220205576        4.5287832368035827     
   3.5032383635441255       -6.8288795815491694       -4.0407214008403276     
  -2.1104153014092786       -8.7791428827924562      -0.18524697494439468     
   1.0208179438201164       -6.8228171883042279       -1.2210666105204098     
  0.75689694978707722       -8.0009414938435004        2.8379081134180186     
   8.6517201092653355       -2.3876402488496185        2.7465822312188863     
   2.9705908441595996       -7.9570444681601895       -1.3248575401768738     
   8.0223951209008728      -0.88240092345235954       -1.1380412750257003     
 -0.93760322803008644       -8.1946706879880828        2.6094352150555706     
   9.2591872177387700       -1.9520410827264778       0.82652474383242203     
   2.5225890020639792       -6.8842716940550117       -4.7704468135167737     
  -2.0419935053957983       -9.2510238473793542       0.70680168149586053     
  -1.3466250667257689       -8.5690955559478965       0.48002876738929939     
  -1.7502656555062577       -8.5558404976937545        3.7394437978791086     
   4.3722813574163029       -6.8096683679255650       -4.9761095373966553     
   5.0883388171888928       -3.4081739246197218       -2.5525897394518697     
  0.93924072366183808       -6.7692347328753870       -5.2847678625914067     
  0.46740676832073746       -6.6942262391525071       -4.4032735848927027     
   3.7060767530931549       -6.5640587771871353       -1.0342436868201124     
   4.1333959020301272       -7.0839804438248670        4.7898121554043653     
   3.1137620337471046       -7.8660756202599922        1.4466689916630715     
   2.8098281620824865       -5.9168567214003707        1.9187471439567914     
   1.0010231516664820       -8.5094256346535175       0.74968034339965639     
   1.6541075308738635       -7.1682193474134612        2.6288419923556137     
   2.5333047950111571       -5.5728049759324696        3.0119769032482715     
   7.0481410352416924       -2.9527206166967082        5.6439978028390563     
   6.3481892092067005       -2.6703608525984870       -6.5425241808197256     
   1.6208552115109875       -6.1770930406447890       -1.7015803234302680     
   6.7863438823094535       -4.6490171006252821        4.5796599830269340     
 -0.24043078852812921       -6.8169520512453730       0.43001637891938393     
   2.6525247420882700       -7.3792659756928405       -3.9021461327416582     
   7.2261825149803274       -1.1935210133674361       -5.9613902040373814     
   6.1740077363639472       -5.6662726992267620       -1.8716885952980706     
   3.2199416702455266       -6.1399341699549099       -4.7078593685698591     
  -1.4715995827161001       -7.8898139662600366      -0.24337268856960520     
  -3.2974119342060604       -7.5905259425994762       -2.6840495024837292     
   7.6421345717886338       -5.4922098825615642        1.2965488428578138     
   9.1723314249578021       -1.0682354371005691       -2.2090829458641643     
   4.5548579435277885       -8.0810344286411144        2.0452298054436446     
  -2.3216008789257851       -7.0693107647817826      -0.27554924295944327     
   4.9417701437075570       -5.5536029419401309       -4.5276836388206370     
   3.2428274004979198       -7.1854946636357431        3.4250882424114759     
   7.8976292182468937       -5.2643056720127781       0.29231403976338022     
  -2.3343275668143715       -7.9989085191114659       -2.7446449258867420     
   7.5115087754430325       -4.0759899713818255        4.1324801954304524     
   5.4146457248797963       -6.3093818694269626       -1.7725824403589596     
   2.9130222497248610       -5.8079154486362459       -6.9219950034544189     
   2.2920908814616108       -6.4957414079567197       -6.4936813271071836     
  0.88018433573938926       -8.3167751611773841       -1.5677542317341571     
   1.4150502917368966       -9.3871935339155748       0.34580036280436549     
   9.3082250822940793      -0.70860348720217792      -0.41391790592701994     
   4.7923974177440831       -5.2331512725390663        3.1888370090645961     
   2.9152964848342409       -6.1921692814001865       -5.7500937561292194     
   6.1725544333500766       -3.2104201632151756        4.9288460992024206     
 -0.35034451147084000       -8.6558188259954250       0.66165963794444194     
   4.0658964968501348       -7.5126263491391869        1.3033449694402717     
 -0.56443546185732374       -8.9772106304499690        1.9436620847851802     
  -3.4372823551092844       -7.9280162814183202      -0.17426563998121322     
   3.6370585690101445       -5.3201599009577993        6.7906170979663365     
   6.9338067953539353       -5.0532640822145884       -7.9662926592143121E-002
  -1.0372886876445695       -6.6983106569372453        1.0496519368141142     
   1.2673723486772817       -6.6868117156722073       -2.4870354423651966     
   1.3432643817775667       -7.4976511691839836       -1.9060726463493312     
   9.1605606716163326       -2.3384698142860998      -0.92254945302749436     
  0.24705153130557031       -8.4902381595383218        1.4479406197317357     
   9.0586669979621650       -2.1848614428022697        1.7972055577838058     
  -2.8313638535314296       -7.8891148401204925        3.9977969338181989     
   5.7096479356563030       -5.5038072575478143        3.4994274291362726     
  -4.1841040837861769E-002  -7.9500699963175459        2.2383434013094781     
 -0.60795321028114968       -7.2669375933344629        1.7621666892111034     
   1.2490719827638621       -6.7948760950925431        3.4636817369207011     
   8.8602761645823715       -1.7603527682377578       -2.8699137349541286     
   1.7058480772943381       -7.8657596705454100       -2.8016275782398439     
   1.6794064316044477       -6.2374305077112986       -4.5090301666395609     
   8.9685117265305170       -2.8797470037462976        1.0796457584396602     
   5.5388738064637639       -5.8898376335473195       -2.7395249252337726     
  -8.6157745701399016E-002  -6.8976674501850992       -3.5510308408660496     
   4.2760072843088626       -5.4975070051683179       -6.4583271136368854     
   5.7654360876638009       -6.2886567503783386       0.92409564462543958     
   6.6213649898903046       -3.6534189939462300        3.9005575651271904     
  0.77350330832739844       -6.2169985234306235        5.9208505275182732     
   1.4426827528704202       -6.2106502156389043        4.3160368349882052     
   2.8998534425545510       -8.8894948461899066       -1.6789335526612073     
   6.1530883873652646       -6.1487189184695730       -3.8124790763884362     
   1.2411517187776229       -9.0658778311153227       -2.5533296448867882     
   3.8692245644852830       -5.2434027391699756       -3.6794922978226703     
   8.7454517972227830       -1.4911449598166326        3.3451531204240932     
   5.1218342280211333       -5.4741245393146007        4.3509827394096545     
  0.68747519023174841       -7.6188524497781716       -4.0928452560277151     
   5.0641032749637160       -7.9311935988406068       -1.2194046533112690     
  -2.4482511686743642       -8.1335052622688053        2.0737965514149379     
   7.3213171267927333       -3.4547924348011043       -2.8590853940077645     
  0.33034148091016824       -7.4625494575487341       -1.5652461089348277     
   3.5632402138732919       -8.7221728478949991      -0.94561645811949047     
   7.6770653745759017       -1.6778510901451436       -5.1943438615506627     
   1.8450628942213123       -7.3257806726442336      -0.76528099844033759     
  0.62082426964846760       -6.7260912743812815      -0.30946491207149140     
   8.3236462506904293E-002  -8.4567900377002818      -0.98016967041881542     
   5.8248270955594341       -4.3306898728551078       -4.4492029975739573     
   2.1750429510127294       -6.1698514013502885       -3.5622358250426638     
   2.1873114994903111       -8.0347003359665869       -1.9416013716519351     
   6.5932720434740268       -6.3795603533929208        2.3817437491166391     
  0.23058839351114907       -7.4806626780024965       -5.0833073925834809     
   8.5311277938149264       -4.1608596765630717      -0.39446274640664020     
   1.0709101908293832       -9.3516750781778040        1.2841092785195183     
   6.2581532797543122       -4.6077933509407139        5.4632535288659980     
   3.3052966981229819       -5.7702353033528819       -1.5038219169019966     
[...]
POINT_DATA  500
SCALARS radius float
LOOKUP_TABLE default
  0.50000000000000000     
  0.50000000000000000     
  0.50000000000000000     
  0.50000000000000000     
  0.50000000000000000     
  0.50000000000000000     
  0.50000000000000000     
  0.50000000000000000     
  0.50000000000000000     
  0.50000000000000000     
  0.50000000000000000     
  0.50000000000000000     
  0.50000000000000000     
  0.50000000000000000     
  0.50000000000000000     
  0.50000000000000000     
  0.50000000000000000     
  0.50000000000000000     
  0.50000000000000000     
  0.50000000000000000     
  0.50000000000000000     
  0.50000000000000000     
  0.50000000000000000     
  0.50000000000000000     
  0.50000000000000000     
  0.50000000000000000     
  0.50000000000000000     
  0.50000000000000000     
  0.50000000000000000     
  0.50000000000000000     
  0.50000000000000000     
  0.50000000000000000     
  0.50000000000000000     
  0.50000000000000000     
  0.50000000000000000     
  0.50000000000000000     
  0.50000000000000000     
  0.50000000000000000     
  0.50000000000000000     
  0.50000000000000000     
  0.50000000000000000     
  0.50000000000000000     
  0.50000000000000000     
  0.50000000000000000     
  0.50000000000000000     
  0.50000000000000000     
  0.50000000000000000     
  0.50000000000000000     
  0.50000000000000000     
  0.50000000000000000     
  0.50000000000000000     
  0.50000000000000000     
  0.50000000000000000     
  0.50000000000000000     
  0.50000000000000000     
  0.50000000000000000     
  0.50000000000000000     
  0.50000000000000000     
  0.50000000000000000     
  0.50000000000000000     
  0.50000000000000000     
  0.50000000000000000     
  0.50000000000000000     
  0.50000000000000000     
  0.50000000000000000     
  0.50000000000000000     
  0.50000000000000000     
  0.50000000000000000     
  0.50000000000000000     
  0.50000000000000000     
  0.50000000000000000     
  0.50000000000000000     
  0.50000000000000000     
  0.50000000000000000     
  0.50000000000000000     
  0.50000000000000000     
  0.50000000000000000     
  0.50000000000000000     
  0.50000000000000000     
  0.50000000000000000     
  0.50000000000000000     
  0.50000000000000000     
  0.50000000000000000     
  0.50000000000000000     
  0.50000000000000000     
  0.50000000000000000     
  0.50000000000000000     
  0.50000000000000000     
  0.50000000000000000     
  0.50000000000000000     
  0.50000000000000000     
  0.50000000000000000     
  0.50000000000000000     
  0.50000000000000000     
  0.50000000000000000     
  0.50000000000000000     
  0.50000000000000000     
  0.50000000000000000     
  0.50000000000000000     
  0.50000000000000000     
  0.50000000000000000     
  0.50000000000000000     
  0.50000000000000000     
  0.50000000000000000     
  0.50000000000000000     
  0.50000000000000000     
  0.50000000000000000     
  0.50000000000000000     
  0.50000000000000000     
  0.50000000000000000     
  0.50000000000000000     
  0.50000000000000000     
  0.50000000000000000     
  0.50000000000000000     
  0.50000000000000000     
  0.50000000000000000     
  0.50000000000000000     
  0.50000000000000000     
  0.50000000000000000     
  0.50000000000000000     
  0.50000000000000000     
  0.50000000000000000     
  0.50000000000000000     
  0.50000000000000000     
  0.50000000000000000     
  0.50000000000000000     
  0.50000000000000000     
  0.50000000000000000     
  0.50000000000000000     
  0.50000000000000000     
  0.50000000000000000     
  0.50000000000000000     
  0.50000000000000000     
  0.50000000000000000     
  0.50000000000000000     
  0.50000000000000000     
  0.50000000000000000     
  0.50000000000000000     
  0.50000000000000000     
  0.50000000000000000     
  0.50000000000000000     
  0.50000000000000000     
  0.50000000000000000     
  0.50000000000000000     
  0.50000000000000000     
  0.50000000000000000     
  0.50000000000000000     
  0.50000000000000000     
  0.50000000000000000     
  0.50000000000000000     
  0.50000000000000000     
  0.50000000000000000     
  0.50000000000000000     
  0.50000000000000000     
  0.50000000000000000     
  0.50000000000000000     
  0.50000000000000000     
  0.50000000000000000     
  0.50000000000000000     
  0.50000000000000000     
  0.50000000000000000     
  0.50000000000000000     
  0.50000000000000000     
  0.50000000000000000     
  0.50000000000000000     
  0.50000000000000000     
  0.50000000000000000     
  0.50000000000000000     
  0.50000000000000000     
  0.50000000000000000     
  0.50000000000000000     
  0.50000000000000000     
  0.50000000000000000     
  0.50000000000000000     
  0.50000000000000000     
  0.50000000000000000     
  0.50000000000000000     
  0.50000000000000000     
  0.50000000000000000     
  0.50000000000000000     
  0.50000000000000000     
  0.50000000000000000     
  0.50000000000000000     
  0.50000000000000000     
  0.50000000000000000     
  0.50000000000000000     
  0.50000000000000000     
  0.50000000000000000     
  0.50000000000000000     
  0.50000000000000000     
  0.50000000000000000     
  0.50000000000000000     
  0.50000000000000000     
  0.50000000000000000     
  0.50000000000000000     
  0.50000000000000000     
  0.50000000000000000     
  0.50000000000000000     
  0.50000000000000000     
  0.50000000000000000     
  0.50000000000000000     
  0.50000000000000000     
  0.50000000000000000     
  0.50000000000000000     
  0.50000000000000000     
  0.50000000000000000     
  0.50000000000000000     
  0.50000000000000000     
  0.50000000000000000     
  0.50000000000000000     
  0.50000000000000000     
  0.50000000000000000     
  0.50000000000000000     
  0.50000000000000000     
  0.50000000000000000     
  0.50000000000000000     
  0.50000000000000000     
  0.50000000000000000     
  0.50000000000000000     
  0.50000000000000000     
  0.50000000000000000     
  0.50000000000000000     
  0.50000000000000000     
  0.50000000000000000     
  0.50000000000000000     
  0.50000000000000000     
  0.50000000000000000     
  0.50000000000000000     
  0.50000000000000000     
  0.50000000000000000     
  0.50000000000000000     
  0.50000000000000000     
  0.50000000000000000     
  0.50000000000000000     
  0.50000000000000000     
  0.50000000000000000     
  0.50000000000000000     
  0.50000000000000000     
  0.50000000000000000     
  0.50000000000000000     
  0.50000000000000000     
  0.50000000000000000     
  0.50000000000000000     
  0.50000000000000000     
  0.50000000000000000     
  0.50000000000000000     
  0.50000000000000000     
  0.50000000000000000     
  0.50000000000000000     
  0.50000000000000000     
  0.50000000000000000     
  0.50000000000000000     
  0.50000000000000000     
  0.50000000000000000     
  0.50000000000000000     
  0.50000000000000000     
  0.50000000000000000     
  0.50000000000000000     
  0.50000000000000000     
  0.50000000000000000     
  0.50000000000000000     
  0.50000000000000000     
  0.50000000000000000     
  0.50000000000000000     
  0.50000000000000000     
  0.50000000000000000     
  0.50000000000000000     
  0.50000000000000000     
  0.50000000000000000     
  0.50000000000000000     
  0.50000000000000000     
  0.50000000000000000     
  0.50000000000000000     
  0.50000000000000000     
  0.50000000000000000     
  0.50000000000000000     
  0.50000000000000000     
  0.50000000000000000     
  0.50000000000000000     
  0.50000000000000000     
  0.50000000000000000     
  0.50000000000000000     
  0.50000000000000000     
  0.50000000000000000     
  0.50000000000000000     
  0.50000000000000000     
  0.50000000000000000     
  0.50000000000000000     
  0.50000000000000000     
  0.50000000000000000     
  0.50000000000000000     
  0.50000000000000000     
  0.50000000000000000     
  0.50000000000000000     
  0.50000000000000000     
  0.50000000000000000     
  0.50000000000000000     
  0.50000000000000000     
  0.50000000000000000     
  0.50000000000000000     
  0.50000000000000000     
  0.50000000000000000     
  0.50000000000000000     
  0.50000000000000000     
  0.50000000000000000     
  0.50000000000000000     
  0.50000000000000000     
  0.50000000000000000     
  0.50000000000000000     
  0.50000000000000000     
  0.50000000000000000     
  0.50000000000000000     
  0.50000000000000000     
  0.50000000000000000     
  0.50000000000000000     
  0.50000000000000000     
  0.50000000000000000     
  0.50000000000000000     
  0.50000000000000000     
  0.50000000000000000     
  0.50000000000000000     
  0.50000000000000000     
  0.50000000000000000     
  0.50000000000000000     
  0.50000000000000000     
  0.50000000000000000     
  0.50000000000000000     
  0.50000000000000000     
  0.50000000000000000     
  0.50000000000000000     
  0.50000000000000000     
  0.50000000000000000     
  0.50000000000000000     
  0.50000000000000000     
  0.50000000000000000     
  0.50000000000000000     
  0.50000000000000000     
  0.50000000000000000     
  0.50000000000000000     
  0.50000000000000000     
  0.50000000000000000     
  0.50000000000000000     
  0.50000000000000000     
  0.50000000000000000     
  0.50000000000000000     
  0.50000000000000000     
  0.50000000000000000     
  0.50000000000000000     
  0.50000000000000000     
  0.50000000000000000     
  0.50000000000000000     
  0.50000000000000000     
  0.50000000000000000     
  0.50000000000000000     
  0.50000000000000000     
  0.50000000000000000     
  0.50000000000000000     
  0.50000000000000000     
  0.50000000000000000     
  0.50000000000000000     
  0.50000000000000000     
  0.50000000000000000     
  0.50000000000000000     
  0.50000000000000000     
  0.50000000000000000     
  0.50000000000000000     
  0.50000000000000000     
  0.50000000000000000     
  0.50000000000000000     
  0.50000000000000000     
  0.50000000000000000     
  0.50000000000000000     
  0.50000000000000000     
  0.50000000000000000     
  0.50000000000000000     
  0.50000000000000000     
  0.50000000000000000     
  0.50000000000000000     
  0.50000000000000000     
  0.50000000000000000     
  0.50000000000000000     
  0.50000000000000000     
  0.50000000000000000     
  0.50000000000000000     
  0.50000000000000000     
  0.50000000000000000     
  0.50000000000000000     
  0.50000000000000000     
  0.50000000000000000     
  0.50000000000000000     
  0.50000000000000000     
  0.50000000000000000     
  0.50000000000000000     
  0.50000000000000000     
  0.50000000000000000     
  0.50000000000000000     
  0.50000000000000000     
  0.50000000000000000     
  0.50000000000000000     
  0.50000000000000000     
  0.50000000000000000     
  0.50000000000000000     
  0.50000000000000000     
  0.50000000000000000     
  0.50000000000000000     
  0.50000000000000000     
  0.50000000000000000     
  0.50000000000000000     
  0.50000000000000000     
  0.50000000000000000     
  0.50000000000000000     
  0.50000000000000000     
  0.50000000000000000     
  0.50000000000000000     
  0.50000000000000000     
  0.50000000000000000     
  0.50000000000000000     
  0.50000000000000000     
  0.50000000000000000     
  0.50000000000000000     
  0.50000000000000000     
  0.50000000000000000     
  0.50000000000000000     
  0.50000000000000000     
  0.50000000000000000     
  0.50000000000000000     
  0.50000000000000000     
  0.50000000000000000     
  0.50000000000000000     
  0.50000000000000000     
  0.50000000000000000     
  0.50000000000000000     
  0.50000000000000000     
  0.50000000000000000     
  0.50000000000000000     
  0.50000000000000000     
  0.50000000000000000     
  0.50000000000000000     
  0.50000000000000000     
  0.50000000000000000     
  0.50000000000000000     
  0.50000000000000000     
  0.50000000000000000     
  0.50000000000000000     
  0.50000000000000000     
  0.50000000000000000     
  0.50000000000000000     
  0.50000000000000000     
  0.50000000000000000     
  0.50000000000000000     
  0.50000000000000000     
  0.50000000000000000     
  0.50000000000000000     
  0.50000000000000000     
  0.50000000000000000     
  0.50000000000000000     
  0.50000000000000000     
  0.50000000000000000     
  0.50000000000000000     
  0.50000000000000000     
  0.50000000000000000     
  0.50000000000000000     
  0.50000000000000000     
  0.50000000000000000     
  0.50000000000000000     
  0.50000000000000000     
  0.50000000000000000     
  0.50000000000000000     
  0.50000000000000000     
  0.50000000000000000     
  0.50000000000000000     
  0.50000000000000000     
  0.50000000000000000     
  0.50000000000000000     
  0.50000000000000000     
  0.50000000000000000     
  0.50000000000000000     
  0.50000000000000000     
  0.50000000000000000     
  0.50000000000000000     
  0.50000000000000000     
  0.50000000000000000     
  0.50000000000000000     
  0.50000000000000000     
  0.50000000000000000     
  0.50000000000000000     
  0.50000000000000000     
  0.50000000000000000     
  0.50000000000000000     
  0.50000000000000000     
  0.50000000000000000     
  0.50000000000000000     
  0.50000000000000000     
  0.50000000000000000     
  0.50000000000000000     
  0.50000000000000000     
  0.50000000000000000     
  0.50000000000000000     
  0.50000000000000000     
  0.50000000000000000     
