# vtk DataFile Version 5.1
Data.vtk
ASCII
DATASET UNSTRUCTURED_GRID
 
POINTS 500 float
   1.4405502870118299       -7.0685733750910975        6.1812842150923872     
   1.7507698940084608       -6.7601286725220762       -3.6003713341970576     
   8.7341415030513083       -1.8672850943983053       -2.5550659445694857     
   7.1141433313466163       -4.3734633204098810       -1.8516908320762102     
   8.2078379302628104       -4.5349362819071288       -1.5209483193678679     
  -1.7245286271062241       -7.3262362956386076       -1.3796192012666060     
   3.3788939026284384       -4.6558477685715500        6.8663945805572784     
 -0.83347372636178674       -7.6836975612779330        1.1859632128295081     
   7.0650083599396281       -2.9698301203425048      -0.62914172455676898     
  0.21682967236197681       -6.0041124088135591       -7.1167755093674963     
  -1.4736369405147773       -8.0016416697623942       -2.1004701485297392     
  -2.0354162638086604       -7.2673914247332352      -0.35009703759290794     
   5.3771299424264773       -6.1882007346496364        2.7274692677607089     
  0.76254427367450595       -6.0681352892462437       -4.7033520624711622     
   6.5034991570569849       -4.1463383476546856        3.9264656384597258     
  -3.9333394821261680       -8.6464639512178056      -0.12099333137789019     
   8.0263227040165237      -0.76022947355751413       -4.2974043143365330     
   3.3240217144085404       -8.8914203865283898       0.10695540063010268     
   3.0718794988874869       -5.6070771044675256        4.2826532457789117     
   3.3452203409806547       -6.3967160656748243       -4.4394276928941876     
  -2.5161896824486214       -7.9062020026597857       0.31919184956431290     
   1.5546344557263378       -6.5332903394000379       -1.4371526737828753     
  0.72425189577922944       -8.0434444061353467        3.1029385927595317     
   8.0349999506613603       -4.1412338531645085        2.9048693419683524     
   2.5790862185424683       -8.2124770957693354       -1.5292635334442515     
   9.3125661212005078      -0.74501159739860467      -0.98529988982416050     
 -0.48523860663099744       -8.0349049897519205        2.9261132355274238     
   8.6595789772212513       -3.7273905366164248        1.0540237014307963     
   2.5287867319175881       -6.4474689317591345       -5.0209204821651676     
  -3.8977812735696968       -8.5300320349622663        1.2310402380369807     
  -1.7865995727842243       -8.4120183947582916       0.78483455191335738     
  -1.7379046208456381       -7.8897623895598530        4.9766740153306346     
   3.4964728387435287       -7.3050731212555373       -4.9659504349239079     
   8.7382455591734924      -0.40324409331095734       -1.8733975327793839     
   2.1648232472756810       -5.7202567995031748       -5.6028960900990850     
   1.9012095305793366       -6.0427208926196565       -4.2808848740474392     
   3.9340375372603824       -6.5506198667306039       -1.1441271733129381     
   2.9618618722970349       -7.7462667458853280        4.6349004824649089     
   2.6175529857921078       -8.0130431804247291        1.1640045982947025     
   3.6490989557620819       -5.2612968674403033        2.0957630731177295     
  0.82244122064088132       -8.4584961203457105       0.63155612457593402     
   2.0894506380473099       -7.0721045209528013        2.5229086625624402     
   5.6696648934812188       -3.9409946345419158        2.2225615580352245     
   7.5825994584044691       -2.1818505554987437        5.2342189653086226     
   6.4712081664236063       -3.4327487526680742       -5.9911578339368434     
   2.4791636604338274       -6.1684710236520583       -1.5729129558988653     
   6.2469352341795599       -5.6931747037871494        4.3036045844292197     
  0.25070890502830551       -6.7896593033430710        9.1394690458146313E-002
   2.6409596732229765       -7.0607590400204296       -4.1873947321012182     
   7.5903383561590569       -2.1176958149933234       -5.1074589758827580     
   5.8714959191789529       -5.9297932146492682       -1.7846269260025553     
   3.3638958264913077       -5.9308299742763113       -5.3242543416701897     
  -1.3413042991386592       -7.7412082042253436       0.19228912132539239     
 -0.67359431461697350       -5.9138804584895359       -1.9296169466720818     
   6.3246722337390420       -6.9575685253453114        1.3567795796857207     
   8.8497456248866655       -2.7159735339692515       -2.0381306297085278     
   2.6393059306468269       -8.9010142391463098        2.0139210745497325     
  -1.2703651764529638       -6.6064659431131236      -0.85454191450819716     
   5.0040350587795537       -5.3833693005573924       -4.4379730968957940     
   2.9213570009596364       -7.3950474365650578        3.4388897359880310     
   6.6734941757180382       -6.7249583900184415       0.44890592503052917     
  -1.5277857885644519       -7.0468812613733602       -2.3958059000454317     
   6.9631088190339714       -5.0762592112937224        3.9686094834578340     
   5.0875696336492808       -6.5912012024634903       -1.7789957849862936     
   4.3870794375329742       -4.0835392109982829       -7.3702043725213420     
   3.3403763233920016       -5.3751020008337163       -7.0827904140248892     
  0.41332951416073288       -8.3999520832256529       -1.6144780468707363     
 -0.86513461700714123       -9.4568532216318530       0.26637365487086001     
   9.1475438459371965       -2.5237276655164722      -0.13972394092826523     
   5.3792231782642910       -4.4531959445850271        3.0498685304263855     
   3.6180701019099244       -4.4548623263456610       -6.8060301181144052     
   6.9541677568618478       -3.0180167080182034        5.1745671831327718     
 -0.79891399773927396       -8.5725939338277364       0.72835201994996157     
   3.9465168114206532       -7.5693995633354119       0.98010193835131743     
  -1.0784597662188824       -7.8651063299710851        2.1387940284794342     
  -1.9424003171186945       -6.6392058006850823       0.44220722249622874     
   4.3365584781144859       -5.0452563341884096        6.7810836673341628     
   6.7772758317515089       -5.2493348968675502       0.11083860377476475     
 -0.38587357087949026       -6.3560361245781092       0.78060820287684796     
   1.7991543658474665       -7.0797057842277571       -2.6540819574861083     
   1.4995622344635899       -7.4698035758792187       -1.7831039079649960     
   8.5696367817409751       -4.0139652436437077      -0.71224083898093737     
 -0.29341079885517418       -8.4475159480877942        1.5819381399023911     
   8.3993000715850208       -3.9559931306481890        1.9921004988636293     
  -1.2467139808116707       -7.0682562642693023        4.2411660999196723     
   5.3139531303810843       -5.6041409160388520        3.5686752733812064     
   8.2642465060478731E-002  -7.7260246946508531        2.1632341640722030     
 -0.19346041528592986       -6.9928341628824340        1.5364746299254650     
   1.6153664344769412       -6.7785083261413037        3.3541467065900306     
   8.4266581283818045       -3.3227395093008556       -2.7210879706595650     
   1.3064985254551376       -8.0821382662138728       -3.0832075883999814     
   2.5090821258066067       -5.2566261419368709       -4.3934378144336437     
   8.2051580162451891       -4.6096932902268613        1.2344306595731132     
   5.2462836306486365       -6.0220911979714611       -2.5861692658971376     
  0.69153545585456855       -6.2741445827551150       -3.0956496963786746     
   3.8612338502653647       -6.0354274282154519       -6.2377915302907239     
   5.6498394380155110       -6.3739335242970201       0.90389470408598205     
   8.3978750970650218      -0.98812651937919005        3.8801800700269204     
   2.3994884534743677       -5.1482107762410720        6.9505099364307368     
   2.1547629894812057       -6.0093027046031411        3.9943511293800635     
  0.81998993775795714       -9.2798158901729781       -1.8608201769489967     
   5.1989879507794532       -6.9081154641136333       -3.9332270205568780     
 -0.52780303141669194       -8.7352657649096574       -2.3608829557866922     
   5.0748924086640530       -4.2411048669459435       -3.4825604608154199     
   8.4807716805062512       -2.5523549461086370        3.4220341450958687     
   5.7511594094122565       -4.8537795095538652        4.0654581153162459     
  0.47012058229768139       -7.2062641934172946       -3.4717235892181812     
   3.3886210014905105       -8.7815758386281040       -1.2778696868940149     
  -1.9239869185974137       -7.9894599472158507        2.7505232923549197     
   7.5848249382527753       -3.4756032582095164       -2.1357795860398707     
  0.34753016519766822       -7.2652937672207623       -1.6437715676274685     
   1.8602459748181672       -9.2387488388261243       -1.1979593390409349     
   8.1934534717251353       -2.1203571078148071       -4.3050831197792547     
   2.0785999300740596       -7.3066088857593066      -0.98445005659406615     
   1.1721167849688849       -6.5075636044786433      -0.51143571555301326     
 -0.35784858382370849       -8.5742532442743133      -0.99660008713340342     
   6.5392432425859504       -3.4298847502940921       -3.9859526443882833     
   2.9123495236731904       -6.0791158066603268       -3.5942508237434061     
   1.8423382745780907       -8.3089524289696595       -2.2053294615552130     
   5.0952328408023018       -7.6056615430846186        2.4931261287592266     
   1.4924745421196206       -6.4653005006644291       -5.4731605275492301     
   7.5821069550039564       -5.7045016031656646      -0.32376576825067088     
  -1.2533979130501078       -9.0823991337090479        1.6264818711399061     
   6.1245214811872826       -5.0998499109614963        5.1056232187160022     
   3.8255376206569425       -5.4173488150233808       -1.0413084318093726     
[...]
POINT_DATA  500
SCALARS radius float
LOOKUP_TABLE default
  0.50000000000000000     
  0.50000000000000000     
  0.50000000000000000     
  0.50000000000000000     
  0.50000000000000000     
  0.50000000000000000     
  0.50000000000000000     
  0.50000000000000000     
  0.50000000000000000     
  0.50000000000000000     
  0.50000000000000000     
  0.50000000000000000     
  0.50000000000000000     
  0.50000000000000000     
  0.50000000000000000     
  0.50000000000000000     
  0.50000000000000000     
  0.50000000000000000     
  0.50000000000000000     
  0.50000000000000000     
  0.50000000000000000     
  0.50000000000000000     
  0.50000000000000000     
  0.50000000000000000     
  0.50000000000000000     
  0.50000000000000000     
  0.50000000000000000     
  0.50000000000000000     
  0.50000000000000000     
  0.50000000000000000     
  0.50000000000000000     
  0.50000000000000000     
  0.50000000000000000     
  0.50000000000000000     
  0.50000000000000000     
  0.50000000000000000     
  0.50000000000000000     
  0.50000000000000000     
  0.50000000000000000     
  0.50000000000000000     
  0.50000000000000000     
  0.50000000000000000     
  0.50000000000000000     
  0.50000000000000000     
  0.50000000000000000     
  0.50000000000000000     
  0.50000000000000000     
  0.50000000000000000     
  0.50000000000000000     
  0.50000000000000000     
  0.50000000000000000     
  0.50000000000000000     
  0.50000000000000000     
  0.50000000000000000     
  0.50000000000000000     
  0.50000000000000000     
  0.50000000000000000     
  0.50000000000000000     
  0.50000000000000000     
  0.50000000000000000     
  0.50000000000000000     
  0.50000000000000000     
  0.50000000000000000     
  0.50000000000000000     
  0.50000000000000000     
  0.50000000000000000     
  0.50000000000000000     
  0.50000000000000000     
  0.50000000000000000     
  0.50000000000000000     
  0.50000000000000000     
  0.50000000000000000     
  0.50000000000000000     
  0.50000000000000000     
  0.50000000000000000     
  0.50000000000000000     
  0.50000000000000000     
  0.50000000000000000     
  0.50000000000000000     
  0.50000000000000000     
  0.50000000000000000     
  0.50000000000000000     
  0.50000000000000000     
  0.50000000000000000     
  0.50000000000000000     
  0.50000000000000000     
  0.50000000000000000     
  0.50000000000000000     
  0.50000000000000000     
  0.50000000000000000     
  0.50000000000000000     
  0.50000000000000000     
  0.50000000000000000     
  0.50000000000000000     
  0.50000000000000000     
  0.50000000000000000     
  0.50000000000000000     
  0.50000000000000000     
  0.50000000000000000     
  0.50000000000000000     
  0.50000000000000000     
  0.50000000000000000     
  0.50000000000000000     
  0.50000000000000000     
  0.50000000000000000     
  0.50000000000000000     
  0.50000000000000000     
  0.50000000000000000     
  0.50000000000000000     
  0.50000000000000000     
  0.50000000000000000     
  0.50000000000000000     
  0.50000000000000000     
  0.50000000000000000     
  0.50000000000000000     
  0.50000000000000000     
  0.50000000000000000     
  0.50000000000000000     
  0.50000000000000000     
  0.50000000000000000     
  0.50000000000000000     
  0.50000000000000000     
  0.50000000000000000     
  0.50000000000000000     
  0.50000000000000000     
  0.50000000000000000     
  0.50000000000000000     
  0.50000000000000000     
  0.50000000000000000     
  0.50000000000000000     
  0.50000000000000000     
  0.50000000000000000     
  0.50000000000000000     
  0.50000000000000000     
  0.50000000000000000     
  0.50000000000000000     
  0.50000000000000000     
  0.50000000000000000     
  0.50000000000000000     
  0.50000000000000000     
  0.50000000000000000     
  0.50000000000000000     
  0.50000000000000000     
  0.50000000000000000     
  0.50000000000000000     
  0.50000000000000000     
  0.50000000000000000     
  0.50000000000000000     
  0.50000000000000000     
  0.50000000000000000     
  0.50000000000000000     
  0.50000000000000000     
  0.50000000000000000     
  0.50000000000000000     
  0.50000000000000000     
  0.50000000000000000     
  0.50000000000000000     
  0.50000000000000000     
  0.50000000000000000     
  0.50000000000000000     
  0.50000000000000000     
  0.50000000000000000     
  0.50000000000000000     
  0.50000000000000000     
  0.50000000000000000     
  0.50000000000000000     
  0.50000000000000000     
  0.50000000000000000     
  0.50000000000000000     
  0.50000000000000000     
  0.50000000000000000     
  0.50000000000000000     
  0.50000000000000000     
  0.50000000000000000     
  0.50000000000000000     
  0.50000000000000000     
  0.50000000000000000     
  0.50000000000000000     
  0.50000000000000000     
  0.50000000000000000     
  0.50000000000000000     
  0.50000000000000000     
  0.50000000000000000     
  0.50000000000000000     
  0.50000000000000000     
  0.50000000000000000     
  0.50000000000000000     
  0.50000000000000000     
  0.50000000000000000     
  0.50000000000000000     
  0.50000000000000000     
  0.50000000000000000     
  0.50000000000000000     
  0.50000000000000000     
  0.50000000000000000     
  0.50000000000000000     
  0.50000000000000000     
  0.50000000000000000     
  0.50000000000000000     
  0.50000000000000000     
  0.50000000000000000     
  0.50000000000000000     
  0.50000000000000000     
  0.50000000000000000     
  0.50000000000000000     
  0.50000000000000000     
  0.50000000000000000     
  0.50000000000000000     
  0.50000000000000000     
  0.50000000000000000     
  0.50000000000000000     
  0.50000000000000000     
  0.50000000000000000     
  0.50000000000000000     
  0.50000000000000000     
  0.50000000000000000     
  0.50000000000000000     
  0.50000000000000000     
  0.50000000000000000     
  0.50000000000000000     
  0.50000000000000000     
  0.50000000000000000     
  0.50000000000000000     
  0.50000000000000000     
  0.50000000000000000     
  0.50000000000000000     
  0.50000000000000000     
  0.50000000000000000     
  0.50000000000000000     
  0.50000000000000000     
  0.50000000000000000     
  0.50000000000000000     
  0.50000000000000000     
  0.50000000000000000     
  0.50000000000000000     
  0.50000000000000000     
  0.50000000000000000     
  0.50000000000000000     
  0.50000000000000000     
  0.50000000000000000     
  0.50000000000000000     
  0.50000000000000000     
  0.50000000000000000     
  0.50000000000000000     
  0.50000000000000000     
  0.50000000000000000     
  0.50000000000000000     
  0.50000000000000000     
  0.50000000000000000     
  0.50000000000000000     
  0.50000000000000000     
  0.50000000000000000     
  0.50000000000000000     
  0.50000000000000000     
  0.50000000000000000     
  0.50000000000000000     
  0.50000000000000000     
  0.50000000000000000     
  0.50000000000000000     
  0.50000000000000000     
  0.50000000000000000     
  0.50000000000000000     
  0.50000000000000000     
  0.50000000000000000     
  0.50000000000000000     
  0.50000000000000000     
  0.50000000000000000     
  0.50000000000000000     
  0.50000000000000000     
  0.50000000000000000     
  0.50000000000000000     
  0.50000000000000000     
  0.50000000000000000     
  0.50000000000000000     
  0.50000000000000000     
  0.50000000000000000     
  0.50000000000000000     
  0.50000000000000000     
  0.50000000000000000     
  0.50000000000000000     
  0.50000000000000000     
  0.50000000000000000     
  0.50000000000000000     
  0.50000000000000000     
  0.50000000000000000     
  0.50000000000000000     
  0.50000000000000000     
  0.50000000000000000     
  0.50000000000000000     
  0.50000000000000000     
  0.50000000000000000     
  0.50000000000000000     
  0.50000000000000000     
  0.50000000000000000     
  0.50000000000000000     
  0.50000000000000000     
  0.50000000000000000     
  0.50000000000000000     
  0.50000000000000000     
  0.50000000000000000     
  0.50000000000000000     
  0.50000000000000000     
  0.50000000000000000     
  0.50000000000000000     
  0.50000000000000000     
  0.50000000000000000     
  0.50000000000000000     
  0.50000000000000000     
  0.50000000000000000     
  0.50000000000000000     
  0.50000000000000000     
  0.50000000000000000     
  0.50000000000000000     
  0.50000000000000000     
  0.50000000000000000     
  0.50000000000000000     
  0.50000000000000000     
  0.50000000000000000     
  0.50000000000000000     
  0.50000000000000000     
  0.50000000000000000     
  0.50000000000000000     
  0.50000000000000000     
  0.50000000000000000     
  0.50000000000000000     
  0.50000000000000000     
  0.50000000000000000     
  0.50000000000000000     
  0.50000000000000000     
  0.50000000000000000     
  0.50000000000000000     
  0.50000000000000000     
  0.50000000000000000     
  0.50000000000000000     
  0.50000000000000000     
  0.50000000000000000     
  0.50000000000000000     
  0.50000000000000000     
  0.50000000000000000     
  0.50000000000000000     
  0.50000000000000000     
  0.50000000000000000     
  0.50000000000000000     
  0.50000000000000000     
  0.50000000000000000     
  0.50000000000000000     
  0.50000000000000000     
  0.50000000000000000     
  0.50000000000000000     
  0.50000000000000000     
  0.50000000000000000     
  0.50000000000000000     
  0.50000000000000000     
  0.50000000000000000     
  0.50000000000000000     
  0.50000000000000000     
  0.50000000000000000     
  0.50000000000000000     
  0.50000000000000000     
  0.50000000000000000     
  0.50000000000000000     
  0.50000000000000000     
  0.50000000000000000     
  0.50000000000000000     
  0.50000000000000000     
  0.50000000000000000     
  0.50000000000000000     
  0.50000000000000000     
  0.50000000000000000     
  0.50000000000000000     
  0.50000000000000000     
  0.50000000000000000     
  0.50000000000000000     
  0.50000000000000000     
  0.50000000000000000     
  0.50000000000000000     
  0.50000000000000000     
  0.50000000000000000     
  0.50000000000000000     
  0.50000000000000000     
  0.50000000000000000     
  0.50000000000000000     
  0.50000000000000000     
  0.50000000000000000     
  0.50000000000000000     
  0.50000000000000000     
  0.50000000000000000     
  0.50000000000000000     
  0.50000000000000000     
  0.50000000000000000     
  0.50000000000000000     
  0.50000000000000000     
  0.50000000000000000     
  0.50000000000000000     
  0.50000000000000000     
  0.50000000000000000     
  0.50000000000000000     
  0.50000000000000000     
  0.50000000000000000     
  0.50000000000000000     
  0.50000000000000000     
  0.50000000000000000     
  0.50000000000000000     
  0.50000000000000000     
  0.50000000000000000     
  0.50000000000000000     
  0.50000000000000000     
  0.50000000000000000     
  0.50000000000000000     
  0.50000000000000000     
  0.50000000000000000     
  0.50000000000000000     
  0.50000000000000000     
  0.50000000000000000     
  0.50000000000000000     
  0.50000000000000000     
  0.50000000000000000     
  0.50000000000000000     
  0.50000000000000000     
  0.50000000000000000     
  0.50000000000000000     
  0.50000000000000000     
  0.50000000000000000     
  0.50000000000000000     
  0.50000000000000000     
  0.50000000000000000     
  0.50000000000000000     
  0.50000000000000000     
  0.50000000000000000     
  0.50000000000000000     
  0.50000000000000000     
  0.50000000000000000     
  0.50000000000000000     
  0.50000000000000000     
  0.50000000000000000     
  0.50000000000000000     
  0.50000000000000000     
  0.50000000000000000     
  0.50000000000000000     
  0.50000000000000000     
  0.50000000000000000     
  0.50000000000000000     
  0.50000000000000000     
  0.50000000000000000     
  0.50000000000000000     
  0.50000000000000000     
  0.50000000000000000     
  0.50000000000000000     
  0.50000000000000000     
  0.50000000000000000     
  0.50000000000000000     
  0.50000000000000000     
  0.50000000000000000     
  0.50000000000000000     
  0.50000000000000000     
  0.50000000000000000     
  0.50000000000000000     
  0.50000000000000000     
  0.50000000000000000     
  0.50000000000000000     
  0.50000000000000000     
  0.50000000000000000     
  0.50000000000000000     
  0.50000000000000000     
  0.50000000000000000     
  0.50000000000000000     
  0.50000000000000000     
  0.50000000000000000     
  0.50000000000000000     
  0.50000000000000000     
  0.50000000000000000     
  0.50000000000000000     
  0.50000000000000000     
  0.50000000000000000     
  0.50000000000000000     
  0.50000000000000000     
  0.50000000000000000     
  0.50000000000000000     
  0.50000000000000000     
  0.50000000000000000     
  0.50000000000000000     
  0.50000000000000000     
  0.50000000000000000     
  0.50000000000000000     
  0.50000000000000000     
  0.50000000000000000     
  0.50000000000000000     
  0.50000000000000000     
  0.50000000000000000     
  0.50000000000000000     
  0.50000000000000000     
  0.50000000000000000     
  0.50000000000000000     
  0.50000000000000000     
  0.50000000000000000     
  0.50000000000000000     
  0.50000000000000000     
  0.50000000000000000     
  0.50000000000000000     
  0.50000000000000000     
