# vtk DataFile Version 5.1
Data.vtk
ASCII
DATASET UNSTRUCTURED_GRID
 
POINTS 500 float
   3.4359294499588278       -5.2277792652085839        2.3634526516399244     
 -0.14553954776734662       -8.0855732072841899       -2.1244838115736466     
  -3.2063030973063924       -8.9005327653952389      -0.85674427579550982     
  0.93254799516611842       -7.2609134071613219       -2.2493777021770609     
   5.2262325956613358       -4.3231668239480650       -3.2768709011966948     
   5.7089876077767929       -7.4190105288465249       -1.5965378341892493     
   5.0671523042838871       -6.3802349454580352        2.7432105478504152     
   3.6936951415120189       -6.8384753697159102       0.52510526689168557     
   6.6632716685528939       -3.2661304192909544       -3.4432121618944516     
  -2.1708956734553042       -7.8590294255542608       -2.4203999000153975     
   8.9394382942771511       -1.2437188505742858       -2.9072736429483195     
   3.0389748583254850       -8.7056199768506701       -2.2856421744627711     
   4.9285461708452560       -6.0193067068298713        3.6653817854235533     
   3.5564261928423893       -7.7992442498968799       0.24678302278883432     
  -1.6652706336360683       -8.7448945691452735       0.95354424506880364     
   8.2318988080553783        4.7770757498234000E-002  -2.1219956733975280     
   8.5104692269114164      -0.96863461477676349       -3.7677602268090977     
   8.9436544937065978       0.26114201597497483        1.3152971167262499     
   3.0993825368902588       -6.0533728232780755        5.1679952866390053     
   5.4220980451443754       -4.9785306991259084       -4.3735152215423758     
   3.7360623924289187       -6.6579533505955357       -1.2819870930567612     
  -2.5345485177237759       -9.1557499725678646        1.7404517097973228E-002
   1.6333345815523455       -8.8172297887076336        3.1308093786603508     
   2.6324244644230061       -7.2254993045160258        3.6987980733988057     
   5.6549299738619982       -6.5011572270562583      -0.83659301840476397     
  0.10613153144671621       -9.4448935428266765       -1.0164562070691538     
   1.4459734774201189       -8.2732522686951526        1.8744904268940574     
  0.81938023458886233       -9.2453990107681427       -2.0247053855307238     
   3.4886698793620949       -5.6708724207096672       -6.7559348858391495     
   6.5312000370310983       -2.8770363285376370        2.2974914593230689     
   6.4669824661890560       -6.8182813003333784       -1.3305860765585218     
   5.8166721859948831       -3.1091333818377072        4.0378437897912187     
   2.4578412679853936       -6.0364096772586917       -6.6171869201629940     
   4.1226809033739729       -7.5538739431926931        1.0769135786788246     
   1.0028903833712037       -6.3297063034871535       -1.8716270100110834     
 -0.23943057191997238       -8.6518105888765895       -3.9165388056333863     
   9.1380824448754279       -2.4257742558977826       0.29366936505750701     
   4.9366552010775600       -5.1472153529664713        6.1622105100345337     
   7.7128157874967878       -3.5602309956547091        9.4617113788460494E-002
   3.6530895002090884       -5.4941050813359649        6.8331389442386188     
 -0.58254441708191163       -7.5545901585282520        1.0168285813189009     
   8.8185222256096498       -1.5783063669835629        3.1524783266477678     
   6.1917149724966523       -3.5496885408112204        6.2681271521189545     
   6.7883122179012698       -5.6908488385379741        3.3534427071337198     
   5.7370424846111812       -4.6547104105550581       -5.9723774723480938     
   7.1648781017446348       -1.9217129416881933       -5.8658896047990110     
  -1.9930831631005299       -8.1256105481710126        4.1552924190251392     
   9.0342969241958659       -2.5352886565278991       -1.3876472104904418     
   5.4249644437620850       -5.5714278391727774       -3.5430889374220849     
  -1.4759637379595363       -7.8138649116824661       0.64120881739798685     
   8.2164094239302177       -4.6757882023076984      -0.83683210634418437     
   7.2634429881614739       -1.2730284551175999       -5.0196651620026005     
   4.2798266033479280       -6.4506157509828572      -0.19970631735974675     
  -1.2178600112068401       -8.0256713628131475        2.6127292129324085     
 -0.38621615159847383       -7.9869072861186803        3.1697053242529889     
   6.5949914666044922       -5.3582995665631143       -4.2361710536310877     
 -0.15069506112810560       -6.6494447199227009        2.8081354652790558     
   1.4071182166253724       -5.6524205544307824       -6.8854075967832911     
   3.6591920190061007       -7.8707929540495885       -3.8510046925701817     
  0.63158956399994404       -7.9145765085399562        3.5353156854493211     
   5.5330906339127877       -5.3830160459549914       0.49084124025028081     
   3.8588655296180092       -8.2545356188380179       -2.6870738561100684     
   1.7452594028815966       -8.4040948969657538        4.0345964984258940     
   7.7218570084948794       -5.5129844072462433      -0.47958436764381646     
   3.3540607469119279       -6.4494524402600453       -6.1123497019259192     
   4.2290665336299833       -5.9823745556024814       -5.9737009629996738     
   4.8301169741622134       -7.0665920852402042      -0.84320959431524201     
   7.7071035152333378       -2.5874060536817289        4.5974648699241323     
   1.1843977930832608       -5.9704241915802339      -0.44540207108916807     
  0.51450992646518201       -7.2179374236749281        2.3150896918764006     
   6.3602110015032345       -4.8839547719827134       -5.0845744720264809     
   2.6232020804549592       -6.0774218071832209        6.8099093210595401     
   7.0050432680479089       -4.9895192707234548        4.0350051249686469     
   7.2917534551674672       -3.1173297485242770        1.6179817240277914     
  -1.2802992442157437       -9.0400680202199588        2.6228796842649635     
 -0.86111181543672721       -7.3126976938220638       -2.6518523894794561     
   4.7353032522368315       -6.9536956505810625        4.4127210058410240     
   2.4615414337044466       -7.4388654640476775      -0.38389602774988402     
   8.1995667422203216       -4.7950320774922925       0.15945480359767844     
   3.7608808434378256       -5.0030671128871793       -1.9717171061894716     
   2.6508885239281015       -5.4027158830752944        6.4117755491332473E-002
  -1.2254200581061370       -7.5628741750576260       -1.7455704407094996     
   4.3274557367832083       -7.0213144418659068        2.9478838708932944     
  0.74299505981352731       -6.5843524246159069        4.9860255407955609     
   2.3983561177595321       -8.8468448527616115        2.4864260621989724     
   1.6778791831981714       -7.1658789678692472        2.2563364263028078     
   4.1058476897342331       -6.4661152278755800        1.3586893724140909     
   7.0416714736804700       -5.8914607913973116       -2.4089404666130436     
   3.2020252150666182       -8.9178092389753019       0.68656383715889679     
  0.44977990914377064       -6.6540447235818290       -3.9612086465860616     
   6.4683594819485606       -5.0981807058770787       -2.7051117576981367     
   8.1716299896827191       -4.4633741195458212       -1.8648150796111109     
   9.2696106732649923       -1.9763925038168813      -0.59251503897232383     
   6.7316956976981119       -4.1969031752268835       -3.0507840702789064     
  0.67108164515123692       -6.8417775946252881       -5.9909519769646762     
   7.5812215381065862       -3.6283388456012871       -4.3467785599047453     
  0.89337010938914574       -9.3348908903121757        1.5187173582021813     
  -1.8374123626506804       -7.5512492301576124      -0.25672371552832729     
   5.0322938501548862       -3.5161664661521819        7.0103411723111932     
   3.0116535263864543       -5.5517586199343016        6.0513684439604560     
   4.7315253418264875       -5.1359583756456502       -2.9689375935097617     
   4.4615077941862200       -7.7121337142263240       -3.2728089267117304     
  -3.3759866830578482       -8.6504684140568315       -2.0036381859825920     
  0.22132905690232813       -6.8575560664376978      -0.85066434813626779     
  -2.0129831791714792       -9.0579394902789812        1.9110021780412882     
  0.24199314764645111       -6.9872437276135706        1.3280057576017477     
   3.1304658018762921       -4.9718899338645004       -7.4647257436878895     
   3.1952239669849676       -7.0177120984105645       -4.3664447527396231     
   8.9092494961931514       -3.1588855655050643       0.93453437515264148     
   2.2947704306139962       -6.4137828063116515      -0.71366383517945342     
   6.3480010946344425       -7.0143561611500678      -0.31096852308344508     
   6.7880278290443545       -5.3541157273399547        3.2580534618167359E-002
   5.5587437331893730       -7.2599619418110146       -2.5774815442179833     
   2.9810237988976489       -5.9543766073035274       -1.6163149929240110     
   7.6782012073071471       -5.5568880360279884       0.54413105443902332     
   4.4776198952797346       -4.7997299560673961       -4.0576247418157534     
   6.7159769157676994       -5.8205017495563744       -3.3520138562006756     
  -1.8899195233050243       -9.0567613286854112       -2.0766739905883682     
  0.81478961412662321       -6.9583776189771323       -4.8415591641735896     
   1.6350582093660224       -8.4797783507239632       0.16368185137686583     
  -1.0807287249705471       -6.9462534012446033       -7.7512246052976351E-003
   1.8796635435357627       -6.1866799334917655        2.1686795731956732     
   4.2409914943026976       -8.3068362988830859        1.8056998706037233     
 -0.29140018449748595       -8.6987332731747049      -0.48011181094298250     
   6.3827623897801766       -6.9733001751078270       0.93978357835353732     
[...]
POINT_DATA  500
SCALARS radius float
LOOKUP_TABLE default
  0.50000000000000000     
  0.50000000000000000     
  0.50000000000000000     
  0.50000000000000000     
  0.50000000000000000     
  0.50000000000000000     
  0.50000000000000000     
  0.50000000000000000     
  0.50000000000000000     
  0.50000000000000000     
  0.50000000000000000     
  0.50000000000000000     
  0.50000000000000000     
  0.50000000000000000     
  0.50000000000000000     
  0.50000000000000000     
  0.50000000000000000     
  0.50000000000000000     
  0.50000000000000000     
  0.50000000000000000     
  0.50000000000000000     
  0.50000000000000000     
  0.50000000000000000     
  0.50000000000000000     
  0.50000000000000000     
  0.50000000000000000     
  0.50000000000000000     
  0.50000000000000000     
  0.50000000000000000     
  0.50000000000000000     
  0.50000000000000000     
  0.50000000000000000     
  0.50000000000000000     
  0.50000000000000000     
  0.50000000000000000     
  0.50000000000000000     
  0.50000000000000000     
  0.50000000000000000     
  0.50000000000000000     
  0.50000000000000000     
  0.50000000000000000     
  0.50000000000000000     
  0.50000000000000000     
  0.50000000000000000     
  0.50000000000000000     
  0.50000000000000000     
  0.50000000000000000     
  0.50000000000000000     
  0.50000000000000000     
  0.50000000000000000     
  0.50000000000000000     
  0.50000000000000000     
  0.50000000000000000     
  0.50000000000000000     
  0.50000000000000000     
  0.50000000000000000     
  0.50000000000000000     
  0.50000000000000000     
  0.50000000000000000     
  0.50000000000000000     
  0.50000000000000000     
  0.50000000000000000     
  0.50000000000000000     
  0.50000000000000000     
  0.50000000000000000     
  0.50000000000000000     
  0.50000000000000000     
  0.50000000000000000     
  0.50000000000000000     
  0.50000000000000000     
  0.50000000000000000     
  0.50000000000000000     
  0.50000000000000000     
  0.50000000000000000     
  0.50000000000000000     
  0.50000000000000000     
  0.50000000000000000     
  0.50000000000000000     
  0.50000000000000000     
  0.50000000000000000     
  0.50000000000000000     
  0.50000000000000000     
  0.50000000000000000     
  0.50000000000000000     
  0.50000000000000000     
  0.50000000000000000     
  0.50000000000000000     
  0.50000000000000000     
  0.50000000000000000     
  0.50000000000000000     
  0.50000000000000000     
  0.50000000000000000     
  0.50000000000000000     
  0.50000000000000000     
  0.50000000000000000     
  0.50000000000000000     
  0.50000000000000000     
  0.50000000000000000     
  0.50000000000000000     
  0.50000000000000000     
  0.50000000000000000     
  0.50000000000000000     
  0.50000000000000000     
  0.50000000000000000     
  0.50000000000000000     
  0.50000000000000000     
  0.50000000000000000     
  0.50000000000000000     
  0.50000000000000000     
  0.50000000000000000     
  0.50000000000000000     
  0.50000000000000000     
  0.50000000000000000     
  0.50000000000000000     
  0.50000000000000000     
  0.50000000000000000     
  0.50000000000000000     
  0.50000000000000000     
  0.50000000000000000     
  0.50000000000000000     
  0.50000000000000000     
  0.50000000000000000     
  0.50000000000000000     
  0.50000000000000000     
  0.50000000000000000     
  0.50000000000000000     
  0.50000000000000000     
  0.50000000000000000     
  0.50000000000000000     
  0.50000000000000000     
  0.50000000000000000     
  0.50000000000000000     
  0.50000000000000000     
  0.50000000000000000     
  0.50000000000000000     
  0.50000000000000000     
  0.50000000000000000     
  0.50000000000000000     
  0.50000000000000000     
  0.50000000000000000     
  0.50000000000000000     
  0.50000000000000000     
  0.50000000000000000     
  0.50000000000000000     
  0.50000000000000000     
  0.50000000000000000     
  0.50000000000000000     
  0.50000000000000000     
  0.50000000000000000     
  0.50000000000000000     
  0.50000000000000000     
  0.50000000000000000     
  0.50000000000000000     
  0.50000000000000000     
  0.50000000000000000     
  0.50000000000000000     
  0.50000000000000000     
  0.50000000000000000     
  0.50000000000000000     
  0.50000000000000000     
  0.50000000000000000     
  0.50000000000000000     
  0.50000000000000000     
  0.50000000000000000     
  0.50000000000000000     
  0.50000000000000000     
  0.50000000000000000     
  0.50000000000000000     
  0.50000000000000000     
  0.50000000000000000     
  0.50000000000000000     
  0.50000000000000000     
  0.50000000000000000     
  0.50000000000000000     
  0.50000000000000000     
  0.50000000000000000     
  0.50000000000000000     
  0.50000000000000000     
  0.50000000000000000     
  0.50000000000000000     
  0.50000000000000000     
  0.50000000000000000     
  0.50000000000000000     
  0.50000000000000000     
  0.50000000000000000     
  0.50000000000000000     
  0.50000000000000000     
  0.50000000000000000     
  0.50000000000000000     
  0.50000000000000000     
  0.50000000000000000     
  0.50000000000000000     
  0.50000000000000000     
  0.50000000000000000     
  0.50000000000000000     
  0.50000000000000000     
  0.50000000000000000     
  0.50000000000000000     
  0.50000000000000000     
  0.50000000000000000     
  0.50000000000000000     
  0.50000000000000000     
  0.50000000000000000     
  0.50000000000000000     
  0.50000000000000000     
  0.50000000000000000     
  0.50000000000000000     
  0.50000000000000000     
  0.50000000000000000     
  0.50000000000000000     
  0.50000000000000000     
  0.50000000000000000     
  0.50000000000000000     
  0.50000000000000000     
  0.50000000000000000     
  0.50000000000000000     
  0.50000000000000000     
  0.50000000000000000     
  0.50000000000000000     
  0.50000000000000000     
  0.50000000000000000     
  0.50000000000000000     
  0.50000000000000000     
  0.50000000000000000     
  0.50000000000000000     
  0.50000000000000000     
  0.50000000000000000     
  0.50000000000000000     
  0.50000000000000000     
  0.50000000000000000     
  0.50000000000000000     
  0.50000000000000000     
  0.50000000000000000     
  0.50000000000000000     
  0.50000000000000000     
  0.50000000000000000     
  0.50000000000000000     
  0.50000000000000000     
  0.50000000000000000     
  0.50000000000000000     
  0.50000000000000000     
  0.50000000000000000     
  0.50000000000000000     
  0.50000000000000000     
  0.50000000000000000     
  0.50000000000000000     
  0.50000000000000000     
  0.50000000000000000     
  0.50000000000000000     
  0.50000000000000000     
  0.50000000000000000     
  0.50000000000000000     
  0.50000000000000000     
  0.50000000000000000     
  0.50000000000000000     
  0.50000000000000000     
  0.50000000000000000     
  0.50000000000000000     
  0.50000000000000000     
  0.50000000000000000     
  0.50000000000000000     
  0.50000000000000000     
  0.50000000000000000     
  0.50000000000000000     
  0.50000000000000000     
  0.50000000000000000     
  0.50000000000000000     
  0.50000000000000000     
  0.50000000000000000     
  0.50000000000000000     
  0.50000000000000000     
  0.50000000000000000     
  0.50000000000000000     
  0.50000000000000000     
  0.50000000000000000     
  0.50000000000000000     
  0.50000000000000000     
  0.50000000000000000     
  0.50000000000000000     
  0.50000000000000000     
  0.50000000000000000     
  0.50000000000000000     
  0.50000000000000000     
  0.50000000000000000     
  0.50000000000000000     
  0.50000000000000000     
  0.50000000000000000     
  0.50000000000000000     
  0.50000000000000000     
  0.50000000000000000     
  0.50000000000000000     
  0.50000000000000000     
  0.50000000000000000     
  0.50000000000000000     
  0.50000000000000000     
  0.50000000000000000     
  0.50000000000000000     
  0.50000000000000000     
  0.50000000000000000     
  0.50000000000000000     
  0.50000000000000000     
  0.50000000000000000     
  0.50000000000000000     
  0.50000000000000000     
  0.50000000000000000     
  0.50000000000000000     
  0.50000000000000000     
  0.50000000000000000     
  0.50000000000000000     
  0.50000000000000000     
  0.50000000000000000     
  0.50000000000000000     
  0.50000000000000000     
  0.50000000000000000     
  0.50000000000000000     
  0.50000000000000000     
  0.50000000000000000     
  0.50000000000000000     
  0.50000000000000000     
  0.50000000000000000     
  0.50000000000000000     
  0.50000000000000000     
  0.50000000000000000     
  0.50000000000000000     
  0.50000000000000000     
  0.50000000000000000     
  0.50000000000000000     
  0.50000000000000000     
  0.50000000000000000     
  0.50000000000000000     
  0.50000000000000000     
  0.50000000000000000     
  0.50000000000000000     
  0.50000000000000000     
  0.50000000000000000     
  0.50000000000000000     
  0.50000000000000000     
  0.50000000000000000     
  0.50000000000000000     
  0.50000000000000000     
  0.50000000000000000     
  0.50000000000000000     
  0.50000000000000000     
  0.50000000000000000     
  0.50000000000000000     
  0.50000000000000000     
  0.50000000000000000     
  0.50000000000000000     
  0.50000000000000000     
  0.50000000000000000     
  0.50000000000000000     
  0.50000000000000000     
  0.50000000000000000     
  0.50000000000000000     
  0.50000000000000000     
  0.50000000000000000     
  0.50000000000000000     
  0.50000000000000000     
  0.50000000000000000     
  0.50000000000000000     
  0.50000000000000000     
  0.50000000000000000     
  0.50000000000000000     
  0.50000000000000000     
  0.50000000000000000     
  0.50000000000000000     
  0.50000000000000000     
  0.50000000000000000     
  0.50000000000000000     
  0.50000000000000000     
  0.50000000000000000     
  0.50000000000000000     
  0.50000000000000000     
  0.50000000000000000     
  0.50000000000000000     
  0.50000000000000000     
  0.50000000000000000     
  0.50000000000000000     
  0.50000000000000000     
  0.50000000000000000     
  0.50000000000000000     
  0.50000000000000000     
  0.50000000000000000     
  0.50000000000000000     
  0.50000000000000000     
  0.50000000000000000     
  0.50000000000000000     
  0.50000000000000000     
  0.50000000000000000     
  0.50000000000000000     
  0.50000000000000000     
  0.50000000000000000     
  0.50000000000000000     
  0.50000000000000000     
  0.50000000000000000     
  0.50000000000000000     
  0.50000000000000000     
  0.50000000000000000     
  0.50000000000000000     
  0.50000000000000000     
  0.50000000000000000     
  0.50000000000000000     
  0.50000000000000000     
  0.50000000000000000     
  0.50000000000000000     
  0.50000000000000000     
  0.50000000000000000     
  0.50000000000000000     
  0.50000000000000000     
  0.50000000000000000     
  0.50000000000000000     
  0.50000000000000000     
  0.50000000000000000     
  0.50000000000000000     
  0.50000000000000000     
  0.50000000000000000     
  0.50000000000000000     
  0.50000000000000000     
  0.50000000000000000     
  0.50000000000000000     
  0.50000000000000000     
  0.50000000000000000     
  0.50000000000000000     
  0.50000000000000000     
  0.50000000000000000     
  0.50000000000000000     
  0.50000000000000000     
  0.50000000000000000     
  0.50000000000000000     
  0.50000000000000000     
  0.50000000000000000     
  0.50000000000000000     
  0.50000000000000000     
  0.50000000000000000     
  0.50000000000000000     
  0.50000000000000000     
  0.50000000000000000     
  0.50000000000000000     
  0.50000000000000000     
  0.50000000000000000     
  0.50000000000000000     
  0.50000000000000000     
  0.50000000000000000     
  0.50000000000000000     
  0.50000000000000000     
  0.50000000000000000     
  0.50000000000000000     
  0.50000000000000000     
  0.50000000000000000     
  0.50000000000000000     
  0.50000000000000000     
  0.50000000000000000     
  0.50000000000000000     
  0.50000000000000000     
  0.50000000000000000     
  0.50000000000000000     
  0.50000000000000000     
  0.50000000000000000     
  0.50000000000000000     
  0.50000000000000000     
  0.50000000000000000     
  0.50000000000000000     
  0.50000000000000000     
  0.50000000000000000     
  0.50000000000000000     
  0.50000000000000000     
  0.50000000000000000     
  0.50000000000000000     
  0.50000000000000000     
  0.50000000000000000     
  0.50000000000000000     
  0.50000000000000000     
  0.50000000000000000     
  0.50000000000000000     
  0.50000000000000000     
  0.50000000000000000     
  0.50000000000000000     
  0.50000000000000000     
  0.50000000000000000     
  0.50000000000000000     
  0.50000000000000000     
  0.50000000000000000     
  0.50000000000000000     
  0.50000000000000000     
  0.50000000000000000     
  0.50000000000000000     
  0.50000000000000000     
  0.50000000000000000     
  0.50000000000000000     
  0.50000000000000000     
  0.50000000000000000     
  0.50000000000000000     
  0.50000000000000000     
  0.50000000000000000     
  0.50000000000000000     
  0.50000000000000000     
  0.50000000000000000     
  0.50000000000000000     
  0.50000000000000000     
  0.50000000000000000     
