# vtk DataFile Version 5.1
Data.vtk
ASCII
DATASET UNSTRUCTURED_GRID
 
POINTS 500 float
   2.8489907692853764       -5.4308932564790915        2.2843433843185510     
   3.6749699555118371       -8.6063933857883281       -1.5744142716092120     
   6.5659771925796075       -6.7288570526158074        1.2476869736906202     
   5.0530791865170519       -5.1983569822258611       -2.5512771788076209     
   5.6397430725505409       -3.0896109964029463       0.15685107809191348     
   4.8756005940703684       -4.5102855604679339       -1.8465316911024219     
  0.78411235725828554       -7.3730421542607685        3.6486035333028739     
   6.2654270267754795       -4.3240741227630535        1.2920313716920351     
   6.3740070503027724       -5.6469947666127300       -1.0018663566269184     
  0.50410685742237193       -7.7480031891507908       -5.4622205057827529     
   5.5596455095984165       -3.6273863027668956       -4.3869195961128664     
   2.4640070637349138       -8.5583728189505450       -3.3020571226110187     
   3.5527496836010188       -7.6008178170271217        1.9477834109161978     
   2.1851246146912726       -7.3630266071816610       0.65052978732175659     
   5.6153303431781962       -4.0294786621568113       -3.3220316147563245     
   2.9316366079004599       -6.0561405926001717       -1.1443463129081926     
   7.3356292727757095       -2.5706525742489710       -4.8181600439588941     
   1.0583338238946345       -6.4944719773622834        2.9570503473502630     
   5.3162950002035680       -6.2574278023309367        2.5153780856613439     
   2.8582544886524941       -5.8576212057160113       -3.8461777463133973     
   6.9514473706220352       -4.3310888765525091      -0.60248221065788954     
   1.2347630498480857       -6.4587352585249720       -6.8563968402673510     
  -2.8842869240324496       -7.6257299993660288        3.0058866264197093     
   6.6338558560072203       -4.4459523398492218        2.9109550364718029     
   3.7183614335884023       -4.2567599791583559      -0.83571750138226364     
  0.30541383407875861       -8.8826223750433222       -3.3462780788913138     
   6.9756782607674159       -3.5093063387238144        3.0241619057578224     
   4.5279912386307286       -8.1474678885684249       -1.8269442468191854     
   6.3090541245605998       -3.4887480055011477       -6.1844695989954159     
   7.3882462050054443       -2.8470360259072285        5.1662101722728817     
   7.1328379645887185       -6.0841938525662052       -1.4846392460538962     
   5.1144036474848384       -5.3228111034924330        4.2414396325410033     
   6.9584285987365027       -2.6588481346658002       -5.8046014117758853     
   3.4329366736015876       -6.6393697051173799        1.0581490489317840     
   1.4198199458592859       -5.7249151170923405       -3.0052394954059900     
   4.6796895760439270       -4.6597147375615950       -6.8282232528544426     
   6.1873328033290562       -6.3607750988848650       -3.3909816281769385     
   3.9908114002222135       -4.4862942581892504        5.6581174328917134     
   2.0352157008518117       -8.3113098416176481       0.36734840719489198     
   6.1188584411652771       -3.3607297927904840        4.6778629834146050     
   3.0047669679768361       -8.9653329698298485       0.91221049871632520     
   3.5200129615701847       -6.2581292776197861        4.5970466330932380     
   9.0280537495444708      -0.68237400796451786        2.7587068731447126     
   2.8940387521062014       -8.3129091091757150        3.5735651199169594     
   8.3748756791867738      -0.79510481686740642       -4.4040261132716445     
   8.3995529562044791       -1.3371589006329774        3.9594961791993692     
   9.1048002895538502       -2.5315652129835287       0.82762008008399279     
   7.6269355176160083      -0.78175746117525924       -5.4480899677835639     
   5.6640464154231660       -5.9930085512888329       -2.5838493326734695     
   7.7488957239895546       -5.3211556132093554       0.79861455129573200     
   1.4484558555715081       -6.6008049964692601       -4.1134144241777297E-002
   8.1406649105521875       -1.7714965583431770       -4.4252444656371379     
   8.0794362159598858       -1.7457491385811323       0.42699462387065046     
   1.5858414304967388       -9.0679861837762203        2.3466593968159506     
   3.9368432237915250       -7.7973703393354894        3.5414970809330373     
   4.9463204158786187       -5.3180141809863093       -6.1239560833865623     
 -0.47169583450862340       -9.2036964882922465        2.3043470463588416     
   9.3150042568092317       -1.2450100985237624       -1.3894441178966530     
   1.7096241089930042       -6.8716634809803434       -4.8690142157233751     
   5.9783077150390751       -4.9529110150151157        3.5101361589689120     
 -0.64638818499723616       -9.4611890352097827      -0.56402630193456482     
   1.5980619334147830       -8.2724448613377106       -4.3885669831382161     
  0.65936418885051840       -7.5613085334862795        5.7120882241701656     
   7.3235622678274330       -2.2697556755388062       -1.6123849727646105     
   2.2086983658470585       -5.8366115470947291       -5.8582298238077897     
   6.4770106562974945       -4.9864052600120452       -4.8249704205775021     
   4.7438754920389465       -3.6383357859382088       -2.8621090365664794     
   8.3488219869289590       -3.6237413074411773        2.7104165821746684     
   1.1068063726501933       -6.7097144838716876       0.97894626460412093     
   8.6565337096306401       -2.6832295368257375        2.5416290479911332     
   4.2023903851489122       -7.6539532429855957       -3.6986465549363858     
   5.9479913596625140       -2.2375681104626040        7.0595546998754148     
   4.7877412887697641       -7.3057242215364546        3.7326437517896927     
   6.6014968549184054       -5.2644421252026969        1.1611610592842554     
  0.62816005566088928       -9.2773379547678374        1.9214443589996768     
   6.7816386834383007       -3.2199826954536035       -1.6594898257968442     
   2.2737488861620365       -6.4610463715839881        6.5446656250480002     
   5.2688923254420379       -5.7387925137495124      -0.75903207938672757     
   6.2717099477544451       -3.6397163474414946       -2.4571679233568195     
   5.2151946959258018       -3.1917618218677979        1.1030374801835487     
  0.61614018240451784       -7.5868422800303197      -0.26170859316639411     
   5.7989674844455292       -4.5183683300521285       -2.3019137188711838     
   2.6046868291619591       -6.6489819885610242        4.4974724804974242     
   4.3755804555635054       -3.5967937165516384        7.5499003479019891     
 -0.95111706444549837       -7.9415597447633290        3.2539386052744668     
   4.6478393280904120       -5.5804423258782103        2.1909242792156900     
   7.4075617514487453       -3.2678581822571253       0.81407406539316018     
   8.7379579251906847       -2.2358351974505255       -2.1930845663399201     
   1.8121668822491050       -7.5063817333687171      -0.26624511650598742     
  0.42968677023530616       -7.9296892241185271       -3.6364097241313855     
   2.3574197971199933       -8.0239829381910006       -2.3427741863391649     
   5.5477791714078721       -5.8877418958882233        4.9443425924734212     
   1.4082029015588977       -5.6564781464075757        3.3845343835715527     
   4.1297897721178565       -7.0949835755537523       -2.5234193999218801     
   5.5083148913578555       -3.5047691271587689       -6.9010755654082505     
   6.6644866341973259       -6.3586101464054074       -2.3244802502140440     
 -0.62758875454207952       -8.9027686807874620        3.2537111315982807     
   4.4742983682962008       -8.3769091779619718       0.15574238978995503     
   4.0755353895134512       -4.0258760434078438        2.7041295522521147     
   6.7017505586169515       -1.4367235816829396        6.4967549232724755     
   6.2961182588936904       -2.5761353332627155       -6.5983870419284987     
   2.1543904463980281       -7.7501131054104686       -5.0504548581457680     
   4.1591257117641467       -5.1309191749997556       -4.6951256261007446     
   1.2788584577112223       -9.4118994225883572        3.2754090819502174E-002
   9.0405502589526403       -2.8613172050164244      -0.34909832845992750     
   3.5561960786536848       -8.8089326876868750        6.9975766178145160E-002
   3.8101495827636871       -5.7198925425110376       -3.5322514277449768     
   6.9124369197407685       -4.9125749303729478       -1.4155833468174701     
   2.2521602876852929       -6.1343182252094453      -0.41438628454297072     
   7.2685357244498388       -4.5908022941830673       0.31000535671071472     
   5.1720531640045460       -7.4279766681876724       -2.0883074474600174     
   1.9238194182821293E-002  -8.5995168033012970       0.57016124063036511     
   2.5798071039039074       -8.1139068526778235       -4.2139905914205400     
   2.4282776514591751       -6.1314351597498051       -2.4294531002536259     
   3.5600665445154713       -6.7595672313361730      -0.81198209489189010     
   3.0999818420208167       -6.7173998252573277       -4.2985269897373959     
   7.4381841481671529       -2.6592859324414975       -2.6657895905252840     
   5.3099803139028419       -7.8347300352499589        6.7659265478499264E-002
 -0.27633784750651685       -8.5661113344899267       -4.0975101646378738     
   5.5035696238839007       -4.0018505048357254       0.56530693562604251     
   6.2500444918700691       -3.7139239508572492      -0.96829362543831887     
  -1.9547236205157452       -8.9410430789144257        1.7645491149108070     
  0.59104060504352796       -8.6069410867522418        3.9677831915995116     
   2.2926367003884267       -9.2191671736440615        3.6462325799251898E-002
   4.8170553376647520       -4.0393311063872703      -0.26880246027711163     
[...]
POINT_DATA  500
SCALARS radius float
LOOKUP_TABLE default
  0.50000000000000000     
  0.50000000000000000     
  0.50000000000000000     
  0.50000000000000000     
  0.50000000000000000     
  0.50000000000000000     
  0.50000000000000000     
  0.50000000000000000     
  0.50000000000000000     
  0.50000000000000000     
  0.50000000000000000     
  0.50000000000000000     
  0.50000000000000000     
  0.50000000000000000     
  0.50000000000000000     
  0.50000000000000000     
  0.50000000000000000     
  0.50000000000000000     
  0.50000000000000000     
  0.50000000000000000     
  0.50000000000000000     
  0.50000000000000000     
  0.50000000000000000     
  0.50000000000000000     
  0.50000000000000000     
  0.50000000000000000     
  0.50000000000000000     
  0.50000000000000000     
  0.50000000000000000     
  0.50000000000000000     
  0.50000000000000000     
  0.50000000000000000     
  0.50000000000000000     
  0.50000000000000000     
  0.50000000000000000     
  0.50000000000000000     
  0.50000000000000000     
  0.50000000000000000     
  0.50000000000000000     
  0.50000000000000000     
  0.50000000000000000     
  0.50000000000000000     
  0.50000000000000000     
  0.50000000000000000     
  0.50000000000000000     
  0.50000000000000000     
  0.50000000000000000     
  0.50000000000000000     
  0.50000000000000000     
  0.50000000000000000     
  0.50000000000000000     
  0.50000000000000000     
  0.50000000000000000     
  0.50000000000000000     
  0.50000000000000000     
  0.50000000000000000     
  0.50000000000000000     
  0.50000000000000000     
  0.50000000000000000     
  0.50000000000000000     
  0.50000000000000000     
  0.50000000000000000     
  0.50000000000000000     
  0.50000000000000000     
  0.50000000000000000     
  0.50000000000000000     
  0.50000000000000000     
  0.50000000000000000     
  0.50000000000000000     
  0.50000000000000000     
  0.50000000000000000     
  0.50000000000000000     
  0.50000000000000000     
  0.50000000000000000     
  0.50000000000000000     
  0.50000000000000000     
  0.50000000000000000     
  0.50000000000000000     
  0.50000000000000000     
  0.50000000000000000     
  0.50000000000000000     
  0.50000000000000000     
  0.50000000000000000     
  0.50000000000000000     
  0.50000000000000000     
  0.50000000000000000     
  0.50000000000000000     
  0.50000000000000000     
  0.50000000000000000     
  0.50000000000000000     
  0.50000000000000000     
  0.50000000000000000     
  0.50000000000000000     
  0.50000000000000000     
  0.50000000000000000     
  0.50000000000000000     
  0.50000000000000000     
  0.50000000000000000     
  0.50000000000000000     
  0.50000000000000000     
  0.50000000000000000     
  0.50000000000000000     
  0.50000000000000000     
  0.50000000000000000     
  0.50000000000000000     
  0.50000000000000000     
  0.50000000000000000     
  0.50000000000000000     
  0.50000000000000000     
  0.50000000000000000     
  0.50000000000000000     
  0.50000000000000000     
  0.50000000000000000     
  0.50000000000000000     
  0.50000000000000000     
  0.50000000000000000     
  0.50000000000000000     
  0.50000000000000000     
  0.50000000000000000     
  0.50000000000000000     
  0.50000000000000000     
  0.50000000000000000     
  0.50000000000000000     
  0.50000000000000000     
  0.50000000000000000     
  0.50000000000000000     
  0.50000000000000000     
  0.50000000000000000     
  0.50000000000000000     
  0.50000000000000000     
  0.50000000000000000     
  0.50000000000000000     
  0.50000000000000000     
  0.50000000000000000     
  0.50000000000000000     
  0.50000000000000000     
  0.50000000000000000     
  0.50000000000000000     
  0.50000000000000000     
  0.50000000000000000     
  0.50000000000000000     
  0.50000000000000000     
  0.50000000000000000     
  0.50000000000000000     
  0.50000000000000000     
  0.50000000000000000     
  0.50000000000000000     
  0.50000000000000000     
  0.50000000000000000     
  0.50000000000000000     
  0.50000000000000000     
  0.50000000000000000     
  0.50000000000000000     
  0.50000000000000000     
  0.50000000000000000     
  0.50000000000000000     
  0.50000000000000000     
  0.50000000000000000     
  0.50000000000000000     
  0.50000000000000000     
  0.50000000000000000     
  0.50000000000000000     
  0.50000000000000000     
  0.50000000000000000     
  0.50000000000000000     
  0.50000000000000000     
  0.50000000000000000     
  0.50000000000000000     
  0.50000000000000000     
  0.50000000000000000     
  0.50000000000000000     
  0.50000000000000000     
  0.50000000000000000     
  0.50000000000000000     
  0.50000000000000000     
  0.50000000000000000     
  0.50000000000000000     
  0.50000000000000000     
  0.50000000000000000     
  0.50000000000000000     
  0.50000000000000000     
  0.50000000000000000     
  0.50000000000000000     
  0.50000000000000000     
  0.50000000000000000     
  0.50000000000000000     
  0.50000000000000000     
  0.50000000000000000     
  0.50000000000000000     
  0.50000000000000000     
  0.50000000000000000     
  0.50000000000000000     
  0.50000000000000000     
  0.50000000000000000     
  0.50000000000000000     
  0.50000000000000000     
  0.50000000000000000     
  0.50000000000000000     
  0.50000000000000000     
  0.50000000000000000     
  0.50000000000000000     
  0.50000000000000000     
  0.50000000000000000     
  0.50000000000000000     
  0.50000000000000000     
  0.50000000000000000     
  0.50000000000000000     
  0.50000000000000000     
  0.50000000000000000     
  0.50000000000000000     
  0.50000000000000000     
  0.50000000000000000     
  0.50000000000000000     
  0.50000000000000000     
  0.50000000000000000     
  0.50000000000000000     
  0.50000000000000000     
  0.50000000000000000     
  0.50000000000000000     
  0.50000000000000000     
  0.50000000000000000     
  0.50000000000000000     
  0.50000000000000000     
  0.50000000000000000     
  0.50000000000000000     
  0.50000000000000000     
  0.50000000000000000     
  0.50000000000000000     
  0.50000000000000000     
  0.50000000000000000     
  0.50000000000000000     
  0.50000000000000000     
  0.50000000000000000     
  0.50000000000000000     
  0.50000000000000000     
  0.50000000000000000     
  0.50000000000000000     
  0.50000000000000000     
  0.50000000000000000     
  0.50000000000000000     
  0.50000000000000000     
  0.50000000000000000     
  0.50000000000000000     
  0.50000000000000000     
  0.50000000000000000     
  0.50000000000000000     
  0.50000000000000000     
  0.50000000000000000     
  0.50000000000000000     
  0.50000000000000000     
  0.50000000000000000     
  0.50000000000000000     
  0.50000000000000000     
  0.50000000000000000     
  0.50000000000000000     
  0.50000000000000000     
  0.50000000000000000     
  0.50000000000000000     
  0.50000000000000000     
  0.50000000000000000     
  0.50000000000000000     
  0.50000000000000000     
  0.50000000000000000     
  0.50000000000000000     
  0.50000000000000000     
  0.50000000000000000     
  0.50000000000000000     
  0.50000000000000000     
  0.50000000000000000     
  0.50000000000000000     
  0.50000000000000000     
  0.50000000000000000     
  0.50000000000000000     
  0.50000000000000000     
  0.50000000000000000     
  0.50000000000000000     
  0.50000000000000000     
  0.50000000000000000     
  0.50000000000000000     
  0.50000000000000000     
  0.50000000000000000     
  0.50000000000000000     
  0.50000000000000000     
  0.50000000000000000     
  0.50000000000000000     
  0.50000000000000000     
  0.50000000000000000     
  0.50000000000000000     
  0.50000000000000000     
  0.50000000000000000     
  0.50000000000000000     
  0.50000000000000000     
  0.50000000000000000     
  0.50000000000000000     
  0.50000000000000000     
  0.50000000000000000     
  0.50000000000000000     
  0.50000000000000000     
  0.50000000000000000     
  0.50000000000000000     
  0.50000000000000000     
  0.50000000000000000     
  0.50000000000000000     
  0.50000000000000000     
  0.50000000000000000     
  0.50000000000000000     
  0.50000000000000000     
  0.50000000000000000     
  0.50000000000000000     
  0.50000000000000000     
  0.50000000000000000     
  0.50000000000000000     
  0.50000000000000000     
  0.50000000000000000     
  0.50000000000000000     
  0.50000000000000000     
  0.50000000000000000     
  0.50000000000000000     
  0.50000000000000000     
  0.50000000000000000     
  0.50000000000000000     
  0.50000000000000000     
  0.50000000000000000     
  0.50000000000000000     
  0.50000000000000000     
  0.50000000000000000     
  0.50000000000000000     
  0.50000000000000000     
  0.50000000000000000     
  0.50000000000000000     
  0.50000000000000000     
  0.50000000000000000     
  0.50000000000000000     
  0.50000000000000000     
  0.50000000000000000     
  0.50000000000000000     
  0.50000000000000000     
  0.50000000000000000     
  0.50000000000000000     
  0.50000000000000000     
  0.50000000000000000     
  0.50000000000000000     
  0.50000000000000000     
  0.50000000000000000     
  0.50000000000000000     
  0.50000000000000000     
  0.50000000000000000     
  0.50000000000000000     
  0.50000000000000000     
  0.50000000000000000     
  0.50000000000000000     
  0.50000000000000000     
  0.50000000000000000     
  0.50000000000000000     
  0.50000000000000000     
  0.50000000000000000     
  0.50000000000000000     
  0.50000000000000000     
  0.50000000000000000     
  0.50000000000000000     
  0.50000000000000000     
  0.50000000000000000     
  0.50000000000000000     
  0.50000000000000000     
  0.50000000000000000     
  0.50000000000000000     
  0.50000000000000000     
  0.50000000000000000     
  0.50000000000000000     
  0.50000000000000000     
  0.50000000000000000     
  0.50000000000000000     
  0.50000000000000000     
  0.50000000000000000     
  0.50000000000000000     
  0.50000000000000000     
  0.50000000000000000     
  0.50000000000000000     
  0.50000000000000000     
  0.50000000000000000     
  0.50000000000000000     
  0.50000000000000000     
  0.50000000000000000     
  0.50000000000000000     
  0.50000000000000000     
  0.50000000000000000     
  0.50000000000000000     
  0.50000000000000000     
  0.50000000000000000     
  0.50000000000000000     
  0.50000000000000000     
  0.50000000000000000     
  0.50000000000000000     
  0.50000000000000000     
  0.50000000000000000     
  0.50000000000000000     
  0.50000000000000000     
  0.50000000000000000     
  0.50000000000000000     
  0.50000000000000000     
  0.50000000000000000     
  0.50000000000000000     
  0.50000000000000000     
  0.50000000000000000     
  0.50000000000000000     
  0.50000000000000000     
  0.50000000000000000     
  0.50000000000000000     
  0.50000000000000000     
  0.50000000000000000     
  0.50000000000000000     
  0.50000000000000000     
  0.50000000000000000     
  0.50000000000000000     
  0.50000000000000000     
  0.50000000000000000     
  0.50000000000000000     
  0.50000000000000000     
  0.50000000000000000     
  0.50000000000000000     
  0.50000000000000000     
  0.50000000000000000     
  0.50000000000000000     
  0.50000000000000000     
  0.50000000000000000     
  0.50000000000000000     
  0.50000000000000000     
  0.50000000000000000     
  0.50000000000000000     
  0.50000000000000000     
  0.50000000000000000     
  0.50000000000000000     
  0.50000000000000000     
  0.50000000000000000     
  0.50000000000000000     
  0.50000000000000000     
  0.50000000000000000     
  0.50000000000000000     
  0.50000000000000000     
  0.50000000000000000     
  0.50000000000000000     
  0.50000000000000000     
  0.50000000000000000     
  0.50000000000000000     
  0.50000000000000000     
  0.50000000000000000     
  0.50000000000000000     
  0.50000000000000000     
  0.50000000000000000     
  0.50000000000000000     
  0.50000000000000000     
  0.50000000000000000     
  0.50000000000000000     
  0.50000000000000000     
  0.50000000000000000     
  0.50000000000000000     
  0.50000000000000000     
  0.50000000000000000     
  0.50000000000000000     
  0.50000000000000000     
  0.50000000000000000     
  0.50000000000000000     
  0.50000000000000000     
  0.50000000000000000     
  0.50000000000000000     
  0.50000000000000000     
  0.50000000000000000     
  0.50000000000000000     
  0.50000000000000000     
  0.50000000000000000     
  0.50000000000000000     
  0.50000000000000000     
  0.50000000000000000     
  0.50000000000000000     
  0.50000000000000000     
  0.50000000000000000     
  0.50000000000000000     
  0.50000000000000000     
  0.50000000000000000     
  0.50000000000000000     
  0.50000000000000000     
  0.50000000000000000     
  0.50000000000000000     
  0.50000000000000000     
  0.50000000000000000     
  0.50000000000000000     
  0.50000000000000000     
  0.50000000000000000     
  0.50000000000000000     
  0.50000000000000000     
  0.50000000000000000     
  0.50000000000000000     
  0.50000000000000000     
  0.50000000000000000     
  0.50000000000000000     
  0.50000000000000000     
  0.50000000000000000     
  0.50000000000000000     
  0.50000000000000000     
  0.50000000000000000     
