# vtk DataFile Version 5.1
Data.vtk
ASCII
DATASET UNSTRUCTURED_GRID
 
POINTS 500 float
   5.2715463078557656       -7.8726768360315562       0.69414594580441991     
   4.4212708342928995       -7.1313016143640633       -1.4158777014926096     
   8.0265518936613063       -1.7864982918976609       -1.4599829311784334     
  -1.0564275685153846       -8.4221434624907108       -1.4656280420154084     
   1.1774642563691002       -9.1292174994765798       -2.3496933472274275     
   5.7199840555349342       -4.6447061494607613       -1.5251778890708276     
   6.4121636397035164       -4.8143160270804808        2.9246945923613028     
   2.6826727326624340       -6.9531125625509631       0.50558430051719550     
   3.5843855345869398       -7.8861872478815167       -3.8983120133741940     
   8.5709185554131846       -3.8323071575568521       -1.4466180148135037     
   1.6932212577182997       -8.7755050844421838       -3.2208073653667291     
   3.8596446926750723       -3.9155289492669736       -6.0392866200331863     
   3.1618777138484240       -7.1798399881360222        3.6962065070964196     
   7.3607482745501880       -3.7656274454468011       -1.2501742679225829     
   1.8818940125048518       -8.4823188420492546       0.22286212707631065     
   3.4610983729456355       -5.7888283174071473       -2.7341360058944466     
 -0.61326181829413817       -8.5263741532416137       -4.1443332882814934     
 -0.74528266303175295       -9.3894157949921588       -1.2306431252829821     
   3.1651327948520804       -8.5883300641100586        2.5347368806002075     
  -2.5632720707842114       -8.4450674157733250       -3.5042972240858639     
   2.6846343747046855       -7.1364200712705550       -1.2220734902919159     
   9.2856316903118810       0.14800696295804075      -0.23349051069561930     
   5.6291597601385819       -3.9775295512000359        6.4568303253437591     
   3.9427613928327903       -4.4778612567891267        5.8221534842928788     
   7.2312849660960836       -3.7442504520974706       -2.5001720310490132     
   8.0448670649347171       -2.4703290448278499       0.28110320124767196     
   5.5309360310630096       -6.2000955922079104        1.9653211313208905     
   5.9736814458905068       -3.7184480890009999       -1.2397123683565334     
   5.0324825379653220       -6.4047140322190383       -4.8821650582616494     
  0.83332349667947703       -6.8936033148584244        3.1577637218738066     
  -1.7935171706048341       -6.6974941606265217       0.13702451943097399     
   4.1758288398281378       -8.1402173541391036        2.5587869769483604     
   6.6423272916577263       -4.0927321134765977       -5.4199419380370992     
   7.5083634422927679       -4.0584536977898846      -0.15646853954823095     
   7.0717187984181136       -6.2483399443368794       -1.0713004147672442     
   4.2081497875601181       -4.2087071605538542       -3.7649780785638924     
  -1.9832330452952087       -7.7703999074337009       0.79890203478161248     
   2.1884721048298315       -7.8569534176938918        4.8673584893794013     
   5.0495556074302508       -5.3382397854962420        4.3997321727878180     
   4.2590723863012512       -7.5963452355701619        3.7954090448379119     
   4.4653216957459829       -8.3629281521000483       0.35783710733334950     
 -0.60772971504468543       -8.9636407572974157        3.0871673086230444     
   6.9460721126144751       -6.3522788967648127        1.2828025882462222     
 -0.93347157471496534       -7.5992346275797420        5.5253715126147895     
   1.4090248531619409       -7.4776784001054013       -5.6867836521251309     
   6.2366410920125510       -6.6846049454690695       -2.5816671294883395     
   6.8700656952137962       -2.7324777690277280        4.7982525079984564     
   2.4799874293960915       -5.7670718213086900       -2.9287914851003616     
   3.3735039142092509       -6.8954928259742729       -4.0786825551929704     
   9.1519135070794082       -2.4362135183356481      -0.12880506928617375     
   1.4547668291181628       -6.8143790768184589       -3.4994157692217338     
   4.7645108136054910       -7.0375398500842063       -4.1559718857857835     
   3.1943578874023797       -6.9972587211197963      -0.37062737223969294     
   9.3351892072246088       -1.6704344403314368       0.55726479613592750     
   8.1330241673342165       -2.2342880827793468        3.5435985130089045     
 -0.78106223794107310       -7.1123760645561491       -4.7201796593037626     
   8.8842742740352580       -3.3530057125891153       0.19203388431866825     
   7.8884321637209354       -2.9535421673752698       -4.3902960053123108     
   3.7025840861406514       -4.9557796577881223       -4.2671655064906311     
   3.7143155611305683       -7.4931778706535761        1.9516823938292511     
   4.5622789986139987       -6.1680830530855149       0.43997559421176274     
   2.1236407932053751       -5.2802934769374108       -3.7765370610578670     
   3.9921950340151149       -5.1969310177458645        6.8770438003221717     
   3.2440923021855053       -5.8501356058370684       -1.7583023271752107     
  0.95367988782485014       -8.0289458100926741       -4.9876776426532592     
   3.3829102946012610       -6.8751952910753227       -5.6158895493681786     
   6.5479334477843585       -4.2244684680879789       -3.0502261783591100     
  -2.9783622659157425       -8.9727469193356768       0.92122275620255911     
   8.5827801180015317       -4.0408510820311117      -0.46855109715535170     
   1.8319674893446292       -8.1538136530207250        1.7437661253344909     
  -1.2904995318748027       -8.0711311872026847       -4.8354426185214177     
   4.9501484949778733       -5.4767721788492079        5.9791917245994384     
  -1.5590284499572884       -9.1246447036106240        2.1353279955623661     
   3.4358018157449077       -6.3672267363172290        2.1258694093611323     
   7.9126344682378091       -1.6987241288102242        4.3661472206351979     
   8.8031347547213290       -2.9136013123323172       -1.7661277687394255     
   1.2678954918256908       -6.9407821148113245        6.3321495424886640     
  0.82109768390519211       -7.7016639206004891        3.3517919379916467E-002
   5.9284135241553226       -4.7358420148604043       0.38444548271739171     
  -1.8429771067814149       -8.0395068450754223       -1.9614171105217970     
   5.9875574228574715       -7.3740669553368035       0.14691625018615101     
   5.9851407912778658       -7.3246318196252744      -0.88189319910546815     
   5.3817061446473407       -4.9010322075077237        2.7765530737509980     
   8.4003537492666105       -3.7326922738645991        2.2980359929371121     
   3.0454771971221346       -6.1501637984693041        3.8893025672749713     
   2.8022926367292005       -7.9229801167451672        1.8805560053265560     
   3.3211342328256803       -6.8748023879344817        1.2711939580721798     
   2.3106395430676483       -6.1886154181597703       -1.8927655482844592     
   2.7598661288185431       -5.5029079796875289        7.1547104472698564     
   7.5509166053941845       -5.4991914671563435       -1.5286330525895335     
   5.1718279877560080       -5.0476653118330450       -4.4463201989236625     
   3.2289224596824111       -8.6605973781746695       -2.1951468105036431     
   2.7289809750601113       -6.1933663256625646      -0.89361515196626617     
  0.99626268905087001       -7.3193319951518152       -2.7596250631851373     
   8.4243753436146136       -3.6326692968755783       -2.4166093001707400     
   6.1431020503142211       -5.2893653228924942       -4.9500682512853009     
   4.0415171529657092       -4.2650751451016458        4.5380086988221038     
   7.1560332071083685       -6.2395193447982322       0.31173551427370139     
   5.6611991544885552       -7.3958532873729048        1.7679889756716356     
   7.8655498359959646       -4.5165386872760775        2.6153032624529957     
  -2.2980691143968737       -8.7221616437038865       -2.5788655269549561     
   2.3004687509632347       -5.7260809326195758       -4.6665889141574226     
   8.5092929275302449      -0.77041556370317288       -3.1972824304967506     
   3.7559703370878599       -8.7177198211638327      -0.26264767524679283     
   8.7644187759218113      -0.44220190723355229        3.1760665997921484     
   3.4106466943217320       -7.8517792672634741        1.0689044041269116     
   7.7455682033106905       -4.1118131677189433       -3.5874849494327230     
   1.7032010176522030       -7.9858967488327428       -2.5033156473980007     
  -1.5187064155164152       -7.3590653229856233        2.2649880105485334     
  0.89641985908459521       -8.5992858175027020       -1.4201227737449742     
   6.2709870261403804       -4.4120244911192286      -0.58237451477868662     
   8.0138595521178946       -3.2229198397228385      -0.37737714094027236     
 -0.19409170764743569       -7.3617005292081767       -5.6691228192798508     
  0.26298277697221523       -9.2855736998546110       -1.7791406952253048     
   2.1404865905381789       -6.1276005315985689       -3.5789270719411681E-002
   2.2731222287912503       -8.9097251040915424       -2.3874263115496754     
 -0.22936414794111601       -8.0843080216474075       -4.9552734672433427     
   5.2449816549252040       -3.0295867762988613       -4.1760103481899202     
   8.6258579440750083       -2.7032079753224667       -2.7275780399142637     
   6.3724462175423140       -5.6216976829213738       0.24729548059594164     
   8.9266746238713512       -3.1505037079892131      -0.79906877884407768     
   3.0220447405699645E-003  -8.6697024329040850        1.3114919442534663     
 -0.55554798790777893       -6.7280569256077349        4.9727317642420257     
   7.4528280091924435       -3.1071509811623645        2.6473767269801454     
   3.6506567931931841       -5.4265967113563081        1.8622070349916668     
[...]
POINT_DATA  500
SCALARS radius float
LOOKUP_TABLE default
  0.50000000000000000     
  0.50000000000000000     
  0.50000000000000000     
  0.50000000000000000     
  0.50000000000000000     
  0.50000000000000000     
  0.50000000000000000     
  0.50000000000000000     
  0.50000000000000000     
  0.50000000000000000     
  0.50000000000000000     
  0.50000000000000000     
  0.50000000000000000     
  0.50000000000000000     
  0.50000000000000000     
  0.50000000000000000     
  0.50000000000000000     
  0.50000000000000000     
  0.50000000000000000     
  0.50000000000000000     
  0.50000000000000000     
  0.50000000000000000     
  0.50000000000000000     
  0.50000000000000000     
  0.50000000000000000     
  0.50000000000000000     
  0.50000000000000000     
  0.50000000000000000     
  0.50000000000000000     
  0.50000000000000000     
  0.50000000000000000     
  0.50000000000000000     
  0.50000000000000000     
  0.50000000000000000     
  0.50000000000000000     
  0.50000000000000000     
  0.50000000000000000     
  0.50000000000000000     
  0.50000000000000000     
  0.50000000000000000     
  0.50000000000000000     
  0.50000000000000000     
  0.50000000000000000     
  0.50000000000000000     
  0.50000000000000000     
  0.50000000000000000     
  0.50000000000000000     
  0.50000000000000000     
  0.50000000000000000     
  0.50000000000000000     
  0.50000000000000000     
  0.50000000000000000     
  0.50000000000000000     
  0.50000000000000000     
  0.50000000000000000     
  0.50000000000000000     
  0.50000000000000000     
  0.50000000000000000     
  0.50000000000000000     
  0.50000000000000000     
  0.50000000000000000     
  0.50000000000000000     
  0.50000000000000000     
  0.50000000000000000     
  0.50000000000000000     
  0.50000000000000000     
  0.50000000000000000     
  0.50000000000000000     
  0.50000000000000000     
  0.50000000000000000     
  0.50000000000000000     
  0.50000000000000000     
  0.50000000000000000     
  0.50000000000000000     
  0.50000000000000000     
  0.50000000000000000     
  0.50000000000000000     
  0.50000000000000000     
  0.50000000000000000     
  0.50000000000000000     
  0.50000000000000000     
  0.50000000000000000     
  0.50000000000000000     
  0.50000000000000000     
  0.50000000000000000     
  0.50000000000000000     
  0.50000000000000000     
  0.50000000000000000     
  0.50000000000000000     
  0.50000000000000000     
  0.50000000000000000     
  0.50000000000000000     
  0.50000000000000000     
  0.50000000000000000     
  0.50000000000000000     
  0.50000000000000000     
  0.50000000000000000     
  0.50000000000000000     
  0.50000000000000000     
  0.50000000000000000     
  0.50000000000000000     
  0.50000000000000000     
  0.50000000000000000     
  0.50000000000000000     
  0.50000000000000000     
  0.50000000000000000     
  0.50000000000000000     
  0.50000000000000000     
  0.50000000000000000     
  0.50000000000000000     
  0.50000000000000000     
  0.50000000000000000     
  0.50000000000000000     
  0.50000000000000000     
  0.50000000000000000     
  0.50000000000000000     
  0.50000000000000000     
  0.50000000000000000     
  0.50000000000000000     
  0.50000000000000000     
  0.50000000000000000     
  0.50000000000000000     
  0.50000000000000000     
  0.50000000000000000     
  0.50000000000000000     
  0.50000000000000000     
  0.50000000000000000     
  0.50000000000000000     
  0.50000000000000000     
  0.50000000000000000     
  0.50000000000000000     
  0.50000000000000000     
  0.50000000000000000     
  0.50000000000000000     
  0.50000000000000000     
  0.50000000000000000     
  0.50000000000000000     
  0.50000000000000000     
  0.50000000000000000     
  0.50000000000000000     
  0.50000000000000000     
  0.50000000000000000     
  0.50000000000000000     
  0.50000000000000000     
  0.50000000000000000     
  0.50000000000000000     
  0.50000000000000000     
  0.50000000000000000     
  0.50000000000000000     
  0.50000000000000000     
  0.50000000000000000     
  0.50000000000000000     
  0.50000000000000000     
  0.50000000000000000     
  0.50000000000000000     
  0.50000000000000000     
  0.50000000000000000     
  0.50000000000000000     
  0.50000000000000000     
  0.50000000000000000     
  0.50000000000000000     
  0.50000000000000000     
  0.50000000000000000     
  0.50000000000000000     
  0.50000000000000000     
  0.50000000000000000     
  0.50000000000000000     
  0.50000000000000000     
  0.50000000000000000     
  0.50000000000000000     
  0.50000000000000000     
  0.50000000000000000     
  0.50000000000000000     
  0.50000000000000000     
  0.50000000000000000     
  0.50000000000000000     
  0.50000000000000000     
  0.50000000000000000     
  0.50000000000000000     
  0.50000000000000000     
  0.50000000000000000     
  0.50000000000000000     
  0.50000000000000000     
  0.50000000000000000     
  0.50000000000000000     
  0.50000000000000000     
  0.50000000000000000     
  0.50000000000000000     
  0.50000000000000000     
  0.50000000000000000     
  0.50000000000000000     
  0.50000000000000000     
  0.50000000000000000     
  0.50000000000000000     
  0.50000000000000000     
  0.50000000000000000     
  0.50000000000000000     
  0.50000000000000000     
  0.50000000000000000     
  0.50000000000000000     
  0.50000000000000000     
  0.50000000000000000     
  0.50000000000000000     
  0.50000000000000000     
  0.50000000000000000     
  0.50000000000000000     
  0.50000000000000000     
  0.50000000000000000     
  0.50000000000000000     
  0.50000000000000000     
  0.50000000000000000     
  0.50000000000000000     
  0.50000000000000000     
  0.50000000000000000     
  0.50000000000000000     
  0.50000000000000000     
  0.50000000000000000     
  0.50000000000000000     
  0.50000000000000000     
  0.50000000000000000     
  0.50000000000000000     
  0.50000000000000000     
  0.50000000000000000     
  0.50000000000000000     
  0.50000000000000000     
  0.50000000000000000     
  0.50000000000000000     
  0.50000000000000000     
  0.50000000000000000     
  0.50000000000000000     
  0.50000000000000000     
  0.50000000000000000     
  0.50000000000000000     
  0.50000000000000000     
  0.50000000000000000     
  0.50000000000000000     
  0.50000000000000000     
  0.50000000000000000     
  0.50000000000000000     
  0.50000000000000000     
  0.50000000000000000     
  0.50000000000000000     
  0.50000000000000000     
  0.50000000000000000     
  0.50000000000000000     
  0.50000000000000000     
  0.50000000000000000     
  0.50000000000000000     
  0.50000000000000000     
  0.50000000000000000     
  0.50000000000000000     
  0.50000000000000000     
  0.50000000000000000     
  0.50000000000000000     
  0.50000000000000000     
  0.50000000000000000     
  0.50000000000000000     
  0.50000000000000000     
  0.50000000000000000     
  0.50000000000000000     
  0.50000000000000000     
  0.50000000000000000     
  0.50000000000000000     
  0.50000000000000000     
  0.50000000000000000     
  0.50000000000000000     
  0.50000000000000000     
  0.50000000000000000     
  0.50000000000000000     
  0.50000000000000000     
  0.50000000000000000     
  0.50000000000000000     
  0.50000000000000000     
  0.50000000000000000     
  0.50000000000000000     
  0.50000000000000000     
  0.50000000000000000     
  0.50000000000000000     
  0.50000000000000000     
  0.50000000000000000     
  0.50000000000000000     
  0.50000000000000000     
  0.50000000000000000     
  0.50000000000000000     
  0.50000000000000000     
  0.50000000000000000     
  0.50000000000000000     
  0.50000000000000000     
  0.50000000000000000     
  0.50000000000000000     
  0.50000000000000000     
  0.50000000000000000     
  0.50000000000000000     
  0.50000000000000000     
  0.50000000000000000     
  0.50000000000000000     
  0.50000000000000000     
  0.50000000000000000     
  0.50000000000000000     
  0.50000000000000000     
  0.50000000000000000     
  0.50000000000000000     
  0.50000000000000000     
  0.50000000000000000     
  0.50000000000000000     
  0.50000000000000000     
  0.50000000000000000     
  0.50000000000000000     
  0.50000000000000000     
  0.50000000000000000     
  0.50000000000000000     
  0.50000000000000000     
  0.50000000000000000     
  0.50000000000000000     
  0.50000000000000000     
  0.50000000000000000     
  0.50000000000000000     
  0.50000000000000000     
  0.50000000000000000     
  0.50000000000000000     
  0.50000000000000000     
  0.50000000000000000     
  0.50000000000000000     
  0.50000000000000000     
  0.50000000000000000     
  0.50000000000000000     
  0.50000000000000000     
  0.50000000000000000     
  0.50000000000000000     
  0.50000000000000000     
  0.50000000000000000     
  0.50000000000000000     
  0.50000000000000000     
  0.50000000000000000     
  0.50000000000000000     
  0.50000000000000000     
  0.50000000000000000     
  0.50000000000000000     
  0.50000000000000000     
  0.50000000000000000     
  0.50000000000000000     
  0.50000000000000000     
  0.50000000000000000     
  0.50000000000000000     
  0.50000000000000000     
  0.50000000000000000     
  0.50000000000000000     
  0.50000000000000000     
  0.50000000000000000     
  0.50000000000000000     
  0.50000000000000000     
  0.50000000000000000     
  0.50000000000000000     
  0.50000000000000000     
  0.50000000000000000     
  0.50000000000000000     
  0.50000000000000000     
  0.50000000000000000     
  0.50000000000000000     
  0.50000000000000000     
  0.50000000000000000     
  0.50000000000000000     
  0.50000000000000000     
  0.50000000000000000     
  0.50000000000000000     
  0.50000000000000000     
  0.50000000000000000     
  0.50000000000000000     
  0.50000000000000000     
  0.50000000000000000     
  0.50000000000000000     
  0.50000000000000000     
  0.50000000000000000     
  0.50000000000000000     
  0.50000000000000000     
  0.50000000000000000     
  0.50000000000000000     
  0.50000000000000000     
  0.50000000000000000     
  0.50000000000000000     
  0.50000000000000000     
  0.50000000000000000     
  0.50000000000000000     
  0.50000000000000000     
  0.50000000000000000     
  0.50000000000000000     
  0.50000000000000000     
  0.50000000000000000     
  0.50000000000000000     
  0.50000000000000000     
  0.50000000000000000     
  0.50000000000000000     
  0.50000000000000000     
  0.50000000000000000     
  0.50000000000000000     
  0.50000000000000000     
  0.50000000000000000     
  0.50000000000000000     
  0.50000000000000000     
  0.50000000000000000     
  0.50000000000000000     
  0.50000000000000000     
  0.50000000000000000     
  0.50000000000000000     
  0.50000000000000000     
  0.50000000000000000     
  0.50000000000000000     
  0.50000000000000000     
  0.50000000000000000     
  0.50000000000000000     
  0.50000000000000000     
  0.50000000000000000     
  0.50000000000000000     
  0.50000000000000000     
  0.50000000000000000     
  0.50000000000000000     
  0.50000000000000000     
  0.50000000000000000     
  0.50000000000000000     
  0.50000000000000000     
  0.50000000000000000     
  0.50000000000000000     
  0.50000000000000000     
  0.50000000000000000     
  0.50000000000000000     
  0.50000000000000000     
  0.50000000000000000     
  0.50000000000000000     
  0.50000000000000000     
  0.50000000000000000     
  0.50000000000000000     
  0.50000000000000000     
  0.50000000000000000     
  0.50000000000000000     
  0.50000000000000000     
  0.50000000000000000     
  0.50000000000000000     
  0.50000000000000000     
  0.50000000000000000     
  0.50000000000000000     
  0.50000000000000000     
  0.50000000000000000     
  0.50000000000000000     
  0.50000000000000000     
  0.50000000000000000     
  0.50000000000000000     
  0.50000000000000000     
  0.50000000000000000     
  0.50000000000000000     
  0.50000000000000000     
  0.50000000000000000     
  0.50000000000000000     
  0.50000000000000000     
  0.50000000000000000     
  0.50000000000000000     
  0.50000000000000000     
  0.50000000000000000     
  0.50000000000000000     
  0.50000000000000000     
  0.50000000000000000     
  0.50000000000000000     
  0.50000000000000000     
  0.50000000000000000     
  0.50000000000000000     
  0.50000000000000000     
  0.50000000000000000     
  0.50000000000000000     
  0.50000000000000000     
  0.50000000000000000     
  0.50000000000000000     
  0.50000000000000000     
  0.50000000000000000     
  0.50000000000000000     
  0.50000000000000000     
  0.50000000000000000     
  0.50000000000000000     
  0.50000000000000000     
  0.50000000000000000     
  0.50000000000000000     
  0.50000000000000000     
  0.50000000000000000     
  0.50000000000000000     
  0.50000000000000000     
  0.50000000000000000     
  0.50000000000000000     
  0.50000000000000000     
  0.50000000000000000     
  0.50000000000000000     
  0.50000000000000000     
  0.50000000000000000     
  0.50000000000000000     
  0.50000000000000000     
  0.50000000000000000     
  0.50000000000000000     
  0.50000000000000000     
  0.50000000000000000     
  0.50000000000000000     
  0.50000000000000000     
  0.50000000000000000     
  0.50000000000000000     
