# vtk DataFile Version 5.1
Data.vtk
ASCII
DATASET UNSTRUCTURED_GRID
 
POINTS 500 float
   9.0190036984234396      -0.58005513531116570        1.5811446122659529     
  0.46056542106238096       -6.9071122265495308       -1.6505234832190561     
  -1.2864512216105561       -6.7079098016125176       0.19088121647275169     
   1.1576460607209558       -7.3942294584899209       -2.2095681746892497     
   8.6209313610358613       -1.7434057127242808       -2.8198608393876876     
   1.0553147236235052       -9.3149738128770991       -1.5404284613473114     
   4.1447949927538446       -6.9800643460259399        2.5485283811156365     
   3.6212440979441105       -6.8707411369922395       0.34148176534883012     
   6.9367399540433761       -4.1444797207542585       -2.6879593485105140     
 -0.15262417990492000       -6.6650472616259950       -3.4936213442413879     
   7.9837102909501283       -4.5359695167880965       -2.4360281707857987     
  -1.0969031084747753       -8.5644006926724696       -2.5405125352740976     
   5.0275008572767153       -5.8947544871152138        3.5171957563032596     
   2.0358135836751892       -8.3039830600941471      -0.18349086544197427     
  -2.0756408320125557       -7.6356850802891563      -0.58375513094571840     
   9.0602350226685111       -2.0432866981805646       -1.8482439610629238     
   8.2585299983925644       -3.3294549570568850       -3.3050287980911928     
   8.9028010221731861       -3.2901676334269698       0.37176453738990645     
   4.1723892783646592       -6.0769616016696908        4.3647379877664729     
   7.2141793801555743       -1.9085517016970039       -5.2413042196434834     
   3.9274504671617376       -6.4124427091205112       -1.4840986983977109     
  -4.1529378335358018       -7.5980437376059093       -3.8977956026026757     
  -1.8431299469724525       -7.7081403540920457        4.7455570982297735     
   2.6091167881185116       -7.3194345185099579        3.8999891363350483     
   4.2953520218639971       -7.3231668237527492       -1.0886473433253407     
  -3.4962982674890823       -8.2031918770839773       -3.2759992658887787     
  0.10722993693863622       -8.3885624298036010        2.0113764653530586     
  -2.2470751175165669       -7.6710230786164129       -2.7862583049071978     
   4.9816007609582380       -4.9291150087141489       -6.3756963668399935     
   8.8880865238816185       -1.2622499044849278        2.9758140004672109     
   2.2951076588696515       -9.0113262104168754       -1.9439582248821665     
   8.7035922968993287       -2.2408220781382511        3.0759976710379271     
   6.6063440685163570       -3.2310158935128857       -5.8915407856577486     
   2.5237032824697399       -8.1711049812825305       0.67905661979183463     
   2.7408894469937297       -5.9256444522916922       -1.5796746669592152     
  0.37679177740341802       -6.4301209457262516       -5.9561464377346702     
   6.9426275070078756       -6.4823928237793327       -7.9259810242603077E-002
   4.8632968032064952       -5.7592545335640102        5.7789744775763534     
   6.9165145076118755       -5.0997882411753093        1.2974801928266498E-002
   5.0203044284574760       -4.9563846243284972        6.3550143646912005     
  0.10498456766852998       -6.8027961735779252       0.94304727714505765     
   7.8657013227843109       -5.0848004829669700        1.5367373456514168     
   6.4791692544293742       -4.8505198642039407        4.9650074644256401     
   3.7916364133498930       -8.2127484387381031        2.8929418959261053     
   5.3005531769014871       -5.7872724371725459       -5.2999248210266483     
   7.5297861187730124       -3.9043386293501170       -4.2788576742542457     
   1.6815703431503748       -6.0214872250181468        4.6319616414442528     
   6.9600393667682585       -6.3700476369360084       -1.0824445799778619     
   5.0992161674014236       -5.9728972355998931       -3.6333464969670080     
 -0.27729625189895885       -7.0118135252935092       -4.4055375163229750E-003
   4.9364459022611866       -8.0668349752365192      -0.89923200281611160     
   7.9665497509098824       -3.0072351485574815       -4.2108428918029679     
   4.2675837783849442       -6.2287591928745147      -0.29892450211138250     
 -0.69371524419354769       -6.8942000983251637        3.4662386417698334     
 -0.27537396739565845       -7.3779958162515724        4.2964232990224334     
   4.0253092749553492       -7.4391708989407466       -4.3238712149138152     
   1.4676672539252169       -6.4955352341765247        3.7771662258427927     
   6.1024898904863818       -4.0912756658635923       -5.9693819543662281     
  0.17432625579727179       -8.3824063593097460       -4.4670962429340513     
  0.53677046871429257       -7.6288185161872777        3.7467746636867965     
   5.7280032853887120       -4.9312737718526130        7.6994158364754733E-002
 -0.27810344998516767       -9.0692124146269855       -2.8137634261840296     
  -1.0831659996537204       -7.7363490494272771        5.4054807035334456     
   4.0617541032624764       -8.5604215052233208      -0.68717460520882889     
   3.6911169078758714       -5.6417858009960966       -6.6364863052621894     
   3.7802424515248316       -6.3671630208859842       -5.9513862495690013     
   3.4626023463306019       -7.8769372389050085       -1.1039544633314251     
   7.4111453720979004       -4.9404848003035289        3.3029591984197846     
   4.3937389647464222       -4.4272854629455987       -1.3845665495525077     
   1.0482289934792208       -7.0855290025376068        3.0574820390196353     
   4.5971621998583139       -6.4904107394073058       -5.1954351980656348     
   4.0948149766400546       -5.4318864983504147        6.6234995898947586     
   4.8357735125988635       -7.3423110515311265        3.5977761020332486     
   7.8051604384060402       -3.4881014447431768        1.0201926747784933     
  -1.5801405603168062       -7.7656137035994668        3.3255951735090670     
   1.0008991827869886       -6.4151886629907322       -2.3601968465571042     
   2.2677521858847332       -8.0453360738401241        4.5143297831883000     
   2.6323798095812232       -7.2265474585761593      -0.70340191269487928     
   4.6301897337286464       -8.2945589427117294        9.1438566558060944E-002
   8.8703990994417747       -1.1507662560899201       -1.2719639002910248     
   9.1577986012385200       0.23573598270852061       0.16972007421551935     
 -0.55880787740961757       -6.9477628211659388       -1.8859570442948448     
   3.3069905353980822       -7.5009278816935367        2.3846443134612492     
   2.5750067594347223       -5.5766753015470316        4.5415273908716944     
  -1.8725821404607115       -8.7246379308361011        3.2532522108259507     
   1.5031165609547226       -7.2487412309695181        2.1758313887189860     
   4.1880824089457658       -6.6262112294579198        1.3074997845656862     
   3.3448799129157525       -8.5401237056314123       -2.4747905075169134     
  -1.9360837942206788       -9.2918599969563367       0.40378875856177937     
   2.2947554827407481       -6.2041123303222943       -3.8227258902983157     
   5.5496856422223830       -5.7467477362845356       -2.6886320429625794     
   4.9220345937058303       -7.9010128560806390       -1.8935142695724834     
   7.5821199561492625       -5.7052737280383949      -0.45741769575980412     
   6.4656754190825980       -5.0255768455551424       -2.6454486789596214     
   5.0595803846163427       -3.8237928719514902       -5.6785062441011531     
   6.0678472245317749       -6.3647822861253962       -3.5945254964764692     
  -2.8077044956071946       -8.7077142147769635        2.4429425436997692     
  0.32231467756797760       -6.1762747290972975       -8.3669311213661585E-002
   7.4813741857048637       -3.0778245615029540        4.9126181324979923     
   5.3292220137399280       -4.0688221872117420        5.0523019050049909     
   5.9323430251444931       -3.5938654501586265       -3.1288244724317336     
  0.53553137471377132       -8.8656274761965363       -3.3710533271893066     
   3.8557820157060636       -4.4727094557920593       -7.1267614111001842     
   1.4244602061484208       -6.5897552632471257      -0.98379328712201841     
  -1.8605442798427438       -7.5625478905893289        1.2869536926996572     
   1.2579398937732520       -6.5545456673419755        1.4918380054718727     
   6.9965132522143056       -1.3525255861992185       -6.2447011799667527     
   3.6250980868763016       -6.3297541349869224       -4.3697132380597390     
   6.2814962414880950       -7.1193150399764882       0.31780195258572075     
   3.3354404532427986       -5.8523955215277095      -0.77189824128014040     
   1.8849493173977550       -9.3084718456011188      -0.20658625501463598     
   5.6072095258622294       -6.5734727269843578      -0.18192912409627843     
   1.2001420370802933       -9.0513459558022955       -2.6234836471941638     
   7.0908606440786537       -2.2084199845028172       -2.1430114529995445     
   3.7297987735139744       -8.7332689271399726       0.24493561169824454     
   8.4626555089491760       -2.3853243576435816       -3.5740373926082194     
   3.2240237192166590       -8.2532115239423511       -3.4262666487717901     
  -1.9766659485562650       -7.2627938451014797       -3.7758191050940209     
   3.5356071414116599       -5.7451338463614183       -5.1766484012776610     
  0.17501175497947888       -8.6401199335682985       0.32204099459542540     
  0.55781829520820148       -6.9900090873085112      -0.61994013874511278     
   2.6921507540558851       -5.7379858457693942        2.0877954206955978     
 -0.21547970109415412       -9.3185434804264240        1.8354150571796584     
  -1.7055199067507927       -8.3519451901688981       -1.2214587639919019     
   1.8217652727143976       -9.2655216070637554        1.0397112796941370     
[...]
POINT_DATA  500
SCALARS radius float
LOOKUP_TABLE default
  0.50000000000000000     
  0.50000000000000000     
  0.50000000000000000     
  0.50000000000000000     
  0.50000000000000000     
  0.50000000000000000     
  0.50000000000000000     
  0.50000000000000000     
  0.50000000000000000     
  0.50000000000000000     
  0.50000000000000000     
  0.50000000000000000     
  0.50000000000000000     
  0.50000000000000000     
  0.50000000000000000     
  0.50000000000000000     
  0.50000000000000000     
  0.50000000000000000     
  0.50000000000000000     
  0.50000000000000000     
  0.50000000000000000     
  0.50000000000000000     
  0.50000000000000000     
  0.50000000000000000     
  0.50000000000000000     
  0.50000000000000000     
  0.50000000000000000     
  0.50000000000000000     
  0.50000000000000000     
  0.50000000000000000     
  0.50000000000000000     
  0.50000000000000000     
  0.50000000000000000     
  0.50000000000000000     
  0.50000000000000000     
  0.50000000000000000     
  0.50000000000000000     
  0.50000000000000000     
  0.50000000000000000     
  0.50000000000000000     
  0.50000000000000000     
  0.50000000000000000     
  0.50000000000000000     
  0.50000000000000000     
  0.50000000000000000     
  0.50000000000000000     
  0.50000000000000000     
  0.50000000000000000     
  0.50000000000000000     
  0.50000000000000000     
  0.50000000000000000     
  0.50000000000000000     
  0.50000000000000000     
  0.50000000000000000     
  0.50000000000000000     
  0.50000000000000000     
  0.50000000000000000     
  0.50000000000000000     
  0.50000000000000000     
  0.50000000000000000     
  0.50000000000000000     
  0.50000000000000000     
  0.50000000000000000     
  0.50000000000000000     
  0.50000000000000000     
  0.50000000000000000     
  0.50000000000000000     
  0.50000000000000000     
  0.50000000000000000     
  0.50000000000000000     
  0.50000000000000000     
  0.50000000000000000     
  0.50000000000000000     
  0.50000000000000000     
  0.50000000000000000     
  0.50000000000000000     
  0.50000000000000000     
  0.50000000000000000     
  0.50000000000000000     
  0.50000000000000000     
  0.50000000000000000     
  0.50000000000000000     
  0.50000000000000000     
  0.50000000000000000     
  0.50000000000000000     
  0.50000000000000000     
  0.50000000000000000     
  0.50000000000000000     
  0.50000000000000000     
  0.50000000000000000     
  0.50000000000000000     
  0.50000000000000000     
  0.50000000000000000     
  0.50000000000000000     
  0.50000000000000000     
  0.50000000000000000     
  0.50000000000000000     
  0.50000000000000000     
  0.50000000000000000     
  0.50000000000000000     
  0.50000000000000000     
  0.50000000000000000     
  0.50000000000000000     
  0.50000000000000000     
  0.50000000000000000     
  0.50000000000000000     
  0.50000000000000000     
  0.50000000000000000     
  0.50000000000000000     
  0.50000000000000000     
  0.50000000000000000     
  0.50000000000000000     
  0.50000000000000000     
  0.50000000000000000     
  0.50000000000000000     
  0.50000000000000000     
  0.50000000000000000     
  0.50000000000000000     
  0.50000000000000000     
  0.50000000000000000     
  0.50000000000000000     
  0.50000000000000000     
  0.50000000000000000     
  0.50000000000000000     
  0.50000000000000000     
  0.50000000000000000     
  0.50000000000000000     
  0.50000000000000000     
  0.50000000000000000     
  0.50000000000000000     
  0.50000000000000000     
  0.50000000000000000     
  0.50000000000000000     
  0.50000000000000000     
  0.50000000000000000     
  0.50000000000000000     
  0.50000000000000000     
  0.50000000000000000     
  0.50000000000000000     
  0.50000000000000000     
  0.50000000000000000     
  0.50000000000000000     
  0.50000000000000000     
  0.50000000000000000     
  0.50000000000000000     
  0.50000000000000000     
  0.50000000000000000     
  0.50000000000000000     
  0.50000000000000000     
  0.50000000000000000     
  0.50000000000000000     
  0.50000000000000000     
  0.50000000000000000     
  0.50000000000000000     
  0.50000000000000000     
  0.50000000000000000     
  0.50000000000000000     
  0.50000000000000000     
  0.50000000000000000     
  0.50000000000000000     
  0.50000000000000000     
  0.50000000000000000     
  0.50000000000000000     
  0.50000000000000000     
  0.50000000000000000     
  0.50000000000000000     
  0.50000000000000000     
  0.50000000000000000     
  0.50000000000000000     
  0.50000000000000000     
  0.50000000000000000     
  0.50000000000000000     
  0.50000000000000000     
  0.50000000000000000     
  0.50000000000000000     
  0.50000000000000000     
  0.50000000000000000     
  0.50000000000000000     
  0.50000000000000000     
  0.50000000000000000     
  0.50000000000000000     
  0.50000000000000000     
  0.50000000000000000     
  0.50000000000000000     
  0.50000000000000000     
  0.50000000000000000     
  0.50000000000000000     
  0.50000000000000000     
  0.50000000000000000     
  0.50000000000000000     
  0.50000000000000000     
  0.50000000000000000     
  0.50000000000000000     
  0.50000000000000000     
  0.50000000000000000     
  0.50000000000000000     
  0.50000000000000000     
  0.50000000000000000     
  0.50000000000000000     
  0.50000000000000000     
  0.50000000000000000     
  0.50000000000000000     
  0.50000000000000000     
  0.50000000000000000     
  0.50000000000000000     
  0.50000000000000000     
  0.50000000000000000     
  0.50000000000000000     
  0.50000000000000000     
  0.50000000000000000     
  0.50000000000000000     
  0.50000000000000000     
  0.50000000000000000     
  0.50000000000000000     
  0.50000000000000000     
  0.50000000000000000     
  0.50000000000000000     
  0.50000000000000000     
  0.50000000000000000     
  0.50000000000000000     
  0.50000000000000000     
  0.50000000000000000     
  0.50000000000000000     
  0.50000000000000000     
  0.50000000000000000     
  0.50000000000000000     
  0.50000000000000000     
  0.50000000000000000     
  0.50000000000000000     
  0.50000000000000000     
  0.50000000000000000     
  0.50000000000000000     
  0.50000000000000000     
  0.50000000000000000     
  0.50000000000000000     
  0.50000000000000000     
  0.50000000000000000     
  0.50000000000000000     
  0.50000000000000000     
  0.50000000000000000     
  0.50000000000000000     
  0.50000000000000000     
  0.50000000000000000     
  0.50000000000000000     
  0.50000000000000000     
  0.50000000000000000     
  0.50000000000000000     
  0.50000000000000000     
  0.50000000000000000     
  0.50000000000000000     
  0.50000000000000000     
  0.50000000000000000     
  0.50000000000000000     
  0.50000000000000000     
  0.50000000000000000     
  0.50000000000000000     
  0.50000000000000000     
  0.50000000000000000     
  0.50000000000000000     
  0.50000000000000000     
  0.50000000000000000     
  0.50000000000000000     
  0.50000000000000000     
  0.50000000000000000     
  0.50000000000000000     
  0.50000000000000000     
  0.50000000000000000     
  0.50000000000000000     
  0.50000000000000000     
  0.50000000000000000     
  0.50000000000000000     
  0.50000000000000000     
  0.50000000000000000     
  0.50000000000000000     
  0.50000000000000000     
  0.50000000000000000     
  0.50000000000000000     
  0.50000000000000000     
  0.50000000000000000     
  0.50000000000000000     
  0.50000000000000000     
  0.50000000000000000     
  0.50000000000000000     
  0.50000000000000000     
  0.50000000000000000     
  0.50000000000000000     
  0.50000000000000000     
  0.50000000000000000     
  0.50000000000000000     
  0.50000000000000000     
  0.50000000000000000     
  0.50000000000000000     
  0.50000000000000000     
  0.50000000000000000     
  0.50000000000000000     
  0.50000000000000000     
  0.50000000000000000     
  0.50000000000000000     
  0.50000000000000000     
  0.50000000000000000     
  0.50000000000000000     
  0.50000000000000000     
  0.50000000000000000     
  0.50000000000000000     
  0.50000000000000000     
  0.50000000000000000     
  0.50000000000000000     
  0.50000000000000000     
  0.50000000000000000     
  0.50000000000000000     
  0.50000000000000000     
  0.50000000000000000     
  0.50000000000000000     
  0.50000000000000000     
  0.50000000000000000     
  0.50000000000000000     
  0.50000000000000000     
  0.50000000000000000     
  0.50000000000000000     
  0.50000000000000000     
  0.50000000000000000     
  0.50000000000000000     
  0.50000000000000000     
  0.50000000000000000     
  0.50000000000000000     
  0.50000000000000000     
  0.50000000000000000     
  0.50000000000000000     
  0.50000000000000000     
  0.50000000000000000     
  0.50000000000000000     
  0.50000000000000000     
  0.50000000000000000     
  0.50000000000000000     
  0.50000000000000000     
  0.50000000000000000     
  0.50000000000000000     
  0.50000000000000000     
  0.50000000000000000     
  0.50000000000000000     
  0.50000000000000000     
  0.50000000000000000     
  0.50000000000000000     
  0.50000000000000000     
  0.50000000000000000     
  0.50000000000000000     
  0.50000000000000000     
  0.50000000000000000     
  0.50000000000000000     
  0.50000000000000000     
  0.50000000000000000     
  0.50000000000000000     
  0.50000000000000000     
  0.50000000000000000     
  0.50000000000000000     
  0.50000000000000000     
  0.50000000000000000     
  0.50000000000000000     
  0.50000000000000000     
  0.50000000000000000     
  0.50000000000000000     
  0.50000000000000000     
  0.50000000000000000     
  0.50000000000000000     
  0.50000000000000000     
  0.50000000000000000     
  0.50000000000000000     
  0.50000000000000000     
  0.50000000000000000     
  0.50000000000000000     
  0.50000000000000000     
  0.50000000000000000     
  0.50000000000000000     
  0.50000000000000000     
  0.50000000000000000     
  0.50000000000000000     
  0.50000000000000000     
  0.50000000000000000     
  0.50000000000000000     
  0.50000000000000000     
  0.50000000000000000     
  0.50000000000000000     
  0.50000000000000000     
  0.50000000000000000     
  0.50000000000000000     
  0.50000000000000000     
  0.50000000000000000     
  0.50000000000000000     
  0.50000000000000000     
  0.50000000000000000     
  0.50000000000000000     
  0.50000000000000000     
  0.50000000000000000     
  0.50000000000000000     
  0.50000000000000000     
  0.50000000000000000     
  0.50000000000000000     
  0.50000000000000000     
  0.50000000000000000     
  0.50000000000000000     
  0.50000000000000000     
  0.50000000000000000     
  0.50000000000000000     
  0.50000000000000000     
  0.50000000000000000     
  0.50000000000000000     
  0.50000000000000000     
  0.50000000000000000     
  0.50000000000000000     
  0.50000000000000000     
  0.50000000000000000     
  0.50000000000000000     
  0.50000000000000000     
  0.50000000000000000     
  0.50000000000000000     
  0.50000000000000000     
  0.50000000000000000     
  0.50000000000000000     
  0.50000000000000000     
  0.50000000000000000     
  0.50000000000000000     
  0.50000000000000000     
  0.50000000000000000     
  0.50000000000000000     
  0.50000000000000000     
  0.50000000000000000     
  0.50000000000000000     
  0.50000000000000000     
  0.50000000000000000     
  0.50000000000000000     
  0.50000000000000000     
  0.50000000000000000     
  0.50000000000000000     
  0.50000000000000000     
  0.50000000000000000     
  0.50000000000000000     
  0.50000000000000000     
  0.50000000000000000     
  0.50000000000000000     
  0.50000000000000000     
  0.50000000000000000     
  0.50000000000000000     
  0.50000000000000000     
  0.50000000000000000     
  0.50000000000000000     
  0.50000000000000000     
  0.50000000000000000     
  0.50000000000000000     
  0.50000000000000000     
  0.50000000000000000     
  0.50000000000000000     
  0.50000000000000000     
  0.50000000000000000     
  0.50000000000000000     
  0.50000000000000000     
  0.50000000000000000     
  0.50000000000000000     
  0.50000000000000000     
  0.50000000000000000     
  0.50000000000000000     
  0.50000000000000000     
  0.50000000000000000     
  0.50000000000000000     
  0.50000000000000000     
  0.50000000000000000     
  0.50000000000000000     
  0.50000000000000000     
  0.50000000000000000     
  0.50000000000000000     
  0.50000000000000000     
  0.50000000000000000     
  0.50000000000000000     
  0.50000000000000000     
  0.50000000000000000     
  0.50000000000000000     
  0.50000000000000000     
  0.50000000000000000     
  0.50000000000000000     
  0.50000000000000000     
  0.50000000000000000     
  0.50000000000000000     
  0.50000000000000000     
  0.50000000000000000     
  0.50000000000000000     
  0.50000000000000000     
  0.50000000000000000     
  0.50000000000000000     
  0.50000000000000000     
  0.50000000000000000     
  0.50000000000000000     
  0.50000000000000000     
  0.50000000000000000     
  0.50000000000000000     
  0.50000000000000000     
  0.50000000000000000     
  0.50000000000000000     
  0.50000000000000000     
  0.50000000000000000     
  0.50000000000000000     
  0.50000000000000000     
