# vtk DataFile Version 5.1
Data.vtk
ASCII
DATASET UNSTRUCTURED_GRID
 
POINTS 500 float
   8.2166834748583089       -4.6408083955308550        1.0518005242562625     
   4.8269337577409281       -7.0535869287798683       -1.1067476654500179     
   4.6612567522388488       -5.2268391008185047       -3.2873518920991671     
 -0.93578861259865398       -8.4136140890896502       -1.0160452507410855     
   5.2497904205806556       -7.7308330825750486       -1.7091018560551723     
   5.3009885669057306       -5.1711332932332814       -1.4142891470945853     
   6.1491267752623644       -4.9797968912534518        3.2526441017826935     
   2.0224992396941883       -7.4288894922262783       0.68218763009341166     
   5.5811073693423641       -6.5975605659466705       -3.9457869695855154     
   8.8613327168315195       -1.6042536918745658       -2.1375396176717381     
   4.8173885010116946       -7.7493016847288887       -2.6397716309608432     
  -1.2510623099460862       -7.1816966422302881       -4.4664983113802661     
   2.9766553870438850       -7.2104402721472205        4.1850004711763908     
   7.0661978698504999       -4.0246968110366170       -2.5914336014265666     
   2.6538720752972358       -8.1432108560317324       0.32654084333554478     
   1.7246918319166791       -6.3390875109947089       -2.2215302708766291     
   2.9937315545236287       -8.3176507100525896       -3.4728846455990272     
   3.5808719510442244       -8.7436870220806817      -0.98309471984186658     
   6.5514007126678582       -6.3585337080037174        2.6114398284981850     
 -0.55641404607641032       -9.0905347688344253       -2.7014023553650581     
   2.0457247382758004       -7.2026203149848866       -1.0615266120868780     
   3.8645321394454828       -5.2072862257977315       -2.1277483933889383     
   4.7658968669535247       -4.3327682836218946        6.9721157374294966     
  0.97138033567407733       -7.2323455790161590        6.0765877491289464     
   6.1972929266427137       -4.3906316278245834       -3.7876252529464254     
   5.9940037994383921       -4.4439853816191928       -1.1416260167397230     
   5.7151683353676050       -5.6893077429642060        1.7898058013723630     
   3.3277221719670291       -5.8146132624871516       -1.5192262800408038     
   6.3148254528082823       -5.0969234009919031       -4.9383880286522697     
  0.17623641050459707       -7.1468316044110018        3.0727983285001836     
  -2.7194060646129325       -8.9871994619941251       -1.4440615520632878     
   7.2483680413758673       -5.6099101577653077        2.4986897061552846     
   5.4766651572377487       -3.8990461277556312       -6.7003386036224697     
   7.5436753394613438       -4.3903604150569109       -1.3370854957896299     
   8.7979833196798349       -3.3625190251835555       -1.2318027322034528     
   1.0664155016263039       -6.0565465906559375       -2.9254820647281194     
  -2.9434532985519684       -9.0203446151849587      -0.46923385157219766     
   4.8900703552894127       -6.7004888025455127        4.6295309531027771     
   4.4486955753836783       -5.9047826862906332        4.2151622661428698     
   7.1058309419239638       -5.2876753073395895        3.4347278116394619     
   7.7869044537728573       -5.4110688369042554       0.58078178270610259     
   2.8272599195056407       -8.7802820775779082        2.2323524738669960     
   8.9323314101582358       -2.7047493815888877        1.7690612334691849     
  0.50442702347637836       -8.5675447398289766        4.0734262978018654     
   3.0521470143172160       -7.2125845682092251       -5.3772603471473408     
   8.1216562941109274       -3.6986026509815590       -3.2567356669613421     
   2.7175556185431193       -5.1144509334546155        4.6729897478325180     
   6.9383341255773612E-002  -6.2243069806203684       -2.5683230832813893     
   2.6661057854678121       -7.1589237273605812       -3.8036510211232519     
   8.8719430773087655      -0.39419904946337503      -0.98369811516293704     
 -0.35800694259587845       -7.0944028615027159       -2.8369949995155399     
   6.9392075159149789       -4.9539105127258010       -4.1703840041049620     
   2.6223303872532391       -7.1652404359935336       -7.9345766265188772E-002
   5.2277234913781934       -3.9353521422942284      -0.59628652646102454     
   5.5476784320631944       -3.8380745507102696        4.9695078288947219     
  0.24071112519065452       -8.9106464470662914       -3.2778094437945549     
   8.0370736606367377       -2.7432242946508967      -0.39625649916886851     
   6.1614672698280790       -2.7086625284665322       -6.4763072194305042     
   1.1993391393448594       -6.5922678137403876       -4.0138410967711620     
   4.6479510551598651       -6.8674721106801107        2.7260207796120790     
   4.0923017048726908       -6.4591913020713765       0.85665607265691557     
  -1.2313363537739079       -6.6073679432291241       -2.9272156453516676     
   3.5795497693749163       -5.8891791105016607        6.5386888611183602     
   1.2995308041997871       -6.5843872547208546       -1.3492924252351364     
   3.7483479127721222       -7.3644755203910526       -4.6758124733566691     
   4.6893345169306260       -6.0586502773434123       -5.5925263649265871     
   5.4883691590425547       -5.0726533029131629       -4.0496427752510593     
  0.46920785341926691       -9.4884081075936226        1.5988749259075334E-002
   9.1496410349149642       -1.0901097149285772      -0.32053805331934010     
   2.3907871377910643       -8.0672956819717943        1.6834017046560523     
   2.0675953018539865       -8.4382980801651843       -3.8432398566881694     
   5.9678250664169266       -4.3011956795459918        6.0106232252485432     
   2.3797089409504597       -9.0909044129153855        1.3937550230200699     
   2.8097097057351084       -6.7000113829921144        2.3860721208029094     
   1.3449680021468990       -5.9212524115345797        2.6210887528644236     
   6.2046536049676719       -3.1337869239243683       -2.7002848097681538     
   1.6148368812948684       -7.6563063523505797        5.3177292052378995     
  -4.0540994135971342E-002  -7.5727612708364900       0.55769425150542229     
   4.4932422576912900       -5.0342972708391054       -4.1833321178301550E-003
  -2.2719670423677787       -8.9229756711030941       -2.3386273884151456     
   8.6345284259834632       -3.9046227710471673       0.51921788036682448     
   8.4467912722821517       -4.2613925099610626      -0.82431195009837155     
   4.3319600838778429       -5.6382827651150089        2.4065232994166994     
   7.7989789840892740       -2.5869412772181661        1.9451047164936122     
  0.69753241111798348       -6.4666708512939959        4.3203557743079726     
   3.6841408230145523       -7.5089076207825780        2.0438577950870580     
   2.5117440831341575       -7.0915153888798566        1.4936420656387959     
  0.32507295168789185       -6.4527694998019083       -1.6286631212706915     
 -0.48656432418856282       -7.5823155098219885        5.7027908498204392     
   8.9791759923941150       -2.5411415453040500       -1.7801436057398228     
   3.4606167771498919       -5.8961968543992676       -5.0988204954794929     
   6.6479742578934182       -6.4207333962760229       -2.1944170092301727     
   1.1451029153288914       -6.0010430481623374      -0.55199713282817453     
  0.58421937666661528       -7.3497674718716981       -2.1710358576398554     
   8.0406819764601050       -1.7271669517729118       -3.2071023420551281     
   6.1800004457444402       -4.3666409547117118       -5.6090868045743232     
 -0.35440675087348800       -6.5426971007570263        3.7074448305731620     
   8.8466367382001181       -2.9570319442624839       0.76551871286690165     
   8.2128158311961315       -4.2085067580239448        2.1662389193492624     
   8.7234240197826924       -1.0436445785811159        3.5737334738097792     
   1.0582698409100597       -9.1698264994997416       -2.2461000043473640     
  -1.0128542871023904       -7.4147267333348461       -3.5221761080601350     
   5.0575145422170822       -4.6949136520126977       -4.9591429305602830     
   7.4298303725811445       -5.8762030692752010      -0.31217123050289808     
   5.1937257962580414       -4.1575313733400519        2.4564800952434105     
   4.1555858556610374       -7.4127241522468283        1.1663042793800418     
   7.4229484905945062       -1.7538493719258987       -5.5251317757482727     
   1.4567803158485539       -8.3490506611820745       -1.8364898289606599     
  -1.8495948211934621       -9.2728353142192361       0.91362687243816554     
   1.4062519045861288       -8.4354902531848150      -0.84143732833416685     
   5.6646781623632343       -5.1248783638852204      -0.48384832285970336     
   7.2848553654385606       -3.4847815806960556       -1.7012345959918320     
   1.3804286436997921       -8.0242877320163171       -4.8944144779643572     
   4.5596364302001264       -8.2494960678463141       -1.1841111786737306     
  0.25907482501774920       -6.3796523916763617       0.30432969116090397     
   5.9051561375409243       -7.1021327575467978       -2.1987498838165132     
   2.8208973334271428       -7.9025054983907168       -4.4545202382019582     
   1.3000571198807243       -6.4674688689317996       -5.0137769898865931     
   6.3882764418044458       -2.7793694946592886       -3.9066285412464663     
   6.8109916903513481       -5.2557091015621769       0.28793162149933405     
   8.9762149057168141      -0.62860093818401142       -1.9506813896220196     
   1.3406425905744870       -9.2922726804995257       0.90012784678332280     
  -2.4834827048072521       -8.2199150346448242        4.0542947666331788     
   6.9917917329943382       -3.6383589224105179        3.4348398900813235     
   2.4685935602956781       -5.8283203616760586        1.9528846633475543     
[...]
POINT_DATA  500
SCALARS radius float
LOOKUP_TABLE default
  0.50000000000000000     
  0.50000000000000000     
  0.50000000000000000     
  0.50000000000000000     
  0.50000000000000000     
  0.50000000000000000     
  0.50000000000000000     
  0.50000000000000000     
  0.50000000000000000     
  0.50000000000000000     
  0.50000000000000000     
  0.50000000000000000     
  0.50000000000000000     
  0.50000000000000000     
  0.50000000000000000     
  0.50000000000000000     
  0.50000000000000000     
  0.50000000000000000     
  0.50000000000000000     
  0.50000000000000000     
  0.50000000000000000     
  0.50000000000000000     
  0.50000000000000000     
  0.50000000000000000     
  0.50000000000000000     
  0.50000000000000000     
  0.50000000000000000     
  0.50000000000000000     
  0.50000000000000000     
  0.50000000000000000     
  0.50000000000000000     
  0.50000000000000000     
  0.50000000000000000     
  0.50000000000000000     
  0.50000000000000000     
  0.50000000000000000     
  0.50000000000000000     
  0.50000000000000000     
  0.50000000000000000     
  0.50000000000000000     
  0.50000000000000000     
  0.50000000000000000     
  0.50000000000000000     
  0.50000000000000000     
  0.50000000000000000     
  0.50000000000000000     
  0.50000000000000000     
  0.50000000000000000     
  0.50000000000000000     
  0.50000000000000000     
  0.50000000000000000     
  0.50000000000000000     
  0.50000000000000000     
  0.50000000000000000     
  0.50000000000000000     
  0.50000000000000000     
  0.50000000000000000     
  0.50000000000000000     
  0.50000000000000000     
  0.50000000000000000     
  0.50000000000000000     
  0.50000000000000000     
  0.50000000000000000     
  0.50000000000000000     
  0.50000000000000000     
  0.50000000000000000     
  0.50000000000000000     
  0.50000000000000000     
  0.50000000000000000     
  0.50000000000000000     
  0.50000000000000000     
  0.50000000000000000     
  0.50000000000000000     
  0.50000000000000000     
  0.50000000000000000     
  0.50000000000000000     
  0.50000000000000000     
  0.50000000000000000     
  0.50000000000000000     
  0.50000000000000000     
  0.50000000000000000     
  0.50000000000000000     
  0.50000000000000000     
  0.50000000000000000     
  0.50000000000000000     
  0.50000000000000000     
  0.50000000000000000     
  0.50000000000000000     
  0.50000000000000000     
  0.50000000000000000     
  0.50000000000000000     
  0.50000000000000000     
  0.50000000000000000     
  0.50000000000000000     
  0.50000000000000000     
  0.50000000000000000     
  0.50000000000000000     
  0.50000000000000000     
  0.50000000000000000     
  0.50000000000000000     
  0.50000000000000000     
  0.50000000000000000     
  0.50000000000000000     
  0.50000000000000000     
  0.50000000000000000     
  0.50000000000000000     
  0.50000000000000000     
  0.50000000000000000     
  0.50000000000000000     
  0.50000000000000000     
  0.50000000000000000     
  0.50000000000000000     
  0.50000000000000000     
  0.50000000000000000     
  0.50000000000000000     
  0.50000000000000000     
  0.50000000000000000     
  0.50000000000000000     
  0.50000000000000000     
  0.50000000000000000     
  0.50000000000000000     
  0.50000000000000000     
  0.50000000000000000     
  0.50000000000000000     
  0.50000000000000000     
  0.50000000000000000     
  0.50000000000000000     
  0.50000000000000000     
  0.50000000000000000     
  0.50000000000000000     
  0.50000000000000000     
  0.50000000000000000     
  0.50000000000000000     
  0.50000000000000000     
  0.50000000000000000     
  0.50000000000000000     
  0.50000000000000000     
  0.50000000000000000     
  0.50000000000000000     
  0.50000000000000000     
  0.50000000000000000     
  0.50000000000000000     
  0.50000000000000000     
  0.50000000000000000     
  0.50000000000000000     
  0.50000000000000000     
  0.50000000000000000     
  0.50000000000000000     
  0.50000000000000000     
  0.50000000000000000     
  0.50000000000000000     
  0.50000000000000000     
  0.50000000000000000     
  0.50000000000000000     
  0.50000000000000000     
  0.50000000000000000     
  0.50000000000000000     
  0.50000000000000000     
  0.50000000000000000     
  0.50000000000000000     
  0.50000000000000000     
  0.50000000000000000     
  0.50000000000000000     
  0.50000000000000000     
  0.50000000000000000     
  0.50000000000000000     
  0.50000000000000000     
  0.50000000000000000     
  0.50000000000000000     
  0.50000000000000000     
  0.50000000000000000     
  0.50000000000000000     
  0.50000000000000000     
  0.50000000000000000     
  0.50000000000000000     
  0.50000000000000000     
  0.50000000000000000     
  0.50000000000000000     
  0.50000000000000000     
  0.50000000000000000     
  0.50000000000000000     
  0.50000000000000000     
  0.50000000000000000     
  0.50000000000000000     
  0.50000000000000000     
  0.50000000000000000     
  0.50000000000000000     
  0.50000000000000000     
  0.50000000000000000     
  0.50000000000000000     
  0.50000000000000000     
  0.50000000000000000     
  0.50000000000000000     
  0.50000000000000000     
  0.50000000000000000     
  0.50000000000000000     
  0.50000000000000000     
  0.50000000000000000     
  0.50000000000000000     
  0.50000000000000000     
  0.50000000000000000     
  0.50000000000000000     
  0.50000000000000000     
  0.50000000000000000     
  0.50000000000000000     
  0.50000000000000000     
  0.50000000000000000     
  0.50000000000000000     
  0.50000000000000000     
  0.50000000000000000     
  0.50000000000000000     
  0.50000000000000000     
  0.50000000000000000     
  0.50000000000000000     
  0.50000000000000000     
  0.50000000000000000     
  0.50000000000000000     
  0.50000000000000000     
  0.50000000000000000     
  0.50000000000000000     
  0.50000000000000000     
  0.50000000000000000     
  0.50000000000000000     
  0.50000000000000000     
  0.50000000000000000     
  0.50000000000000000     
  0.50000000000000000     
  0.50000000000000000     
  0.50000000000000000     
  0.50000000000000000     
  0.50000000000000000     
  0.50000000000000000     
  0.50000000000000000     
  0.50000000000000000     
  0.50000000000000000     
  0.50000000000000000     
  0.50000000000000000     
  0.50000000000000000     
  0.50000000000000000     
  0.50000000000000000     
  0.50000000000000000     
  0.50000000000000000     
  0.50000000000000000     
  0.50000000000000000     
  0.50000000000000000     
  0.50000000000000000     
  0.50000000000000000     
  0.50000000000000000     
  0.50000000000000000     
  0.50000000000000000     
  0.50000000000000000     
  0.50000000000000000     
  0.50000000000000000     
  0.50000000000000000     
  0.50000000000000000     
  0.50000000000000000     
  0.50000000000000000     
  0.50000000000000000     
  0.50000000000000000     
  0.50000000000000000     
  0.50000000000000000     
  0.50000000000000000     
  0.50000000000000000     
  0.50000000000000000     
  0.50000000000000000     
  0.50000000000000000     
  0.50000000000000000     
  0.50000000000000000     
  0.50000000000000000     
  0.50000000000000000     
  0.50000000000000000     
  0.50000000000000000     
  0.50000000000000000     
  0.50000000000000000     
  0.50000000000000000     
  0.50000000000000000     
  0.50000000000000000     
  0.50000000000000000     
  0.50000000000000000     
  0.50000000000000000     
  0.50000000000000000     
  0.50000000000000000     
  0.50000000000000000     
  0.50000000000000000     
  0.50000000000000000     
  0.50000000000000000     
  0.50000000000000000     
  0.50000000000000000     
  0.50000000000000000     
  0.50000000000000000     
  0.50000000000000000     
  0.50000000000000000     
  0.50000000000000000     
  0.50000000000000000     
  0.50000000000000000     
  0.50000000000000000     
  0.50000000000000000     
  0.50000000000000000     
  0.50000000000000000     
  0.50000000000000000     
  0.50000000000000000     
  0.50000000000000000     
  0.50000000000000000     
  0.50000000000000000     
  0.50000000000000000     
  0.50000000000000000     
  0.50000000000000000     
  0.50000000000000000     
  0.50000000000000000     
  0.50000000000000000     
  0.50000000000000000     
  0.50000000000000000     
  0.50000000000000000     
  0.50000000000000000     
  0.50000000000000000     
  0.50000000000000000     
  0.50000000000000000     
  0.50000000000000000     
  0.50000000000000000     
  0.50000000000000000     
  0.50000000000000000     
  0.50000000000000000     
  0.50000000000000000     
  0.50000000000000000     
  0.50000000000000000     
  0.50000000000000000     
  0.50000000000000000     
  0.50000000000000000     
  0.50000000000000000     
  0.50000000000000000     
  0.50000000000000000     
  0.50000000000000000     
  0.50000000000000000     
  0.50000000000000000     
  0.50000000000000000     
  0.50000000000000000     
  0.50000000000000000     
  0.50000000000000000     
  0.50000000000000000     
  0.50000000000000000     
  0.50000000000000000     
  0.50000000000000000     
  0.50000000000000000     
  0.50000000000000000     
  0.50000000000000000     
  0.50000000000000000     
  0.50000000000000000     
  0.50000000000000000     
  0.50000000000000000     
  0.50000000000000000     
  0.50000000000000000     
  0.50000000000000000     
  0.50000000000000000     
  0.50000000000000000     
  0.50000000000000000     
  0.50000000000000000     
  0.50000000000000000     
  0.50000000000000000     
  0.50000000000000000     
  0.50000000000000000     
  0.50000000000000000     
  0.50000000000000000     
  0.50000000000000000     
  0.50000000000000000     
  0.50000000000000000     
  0.50000000000000000     
  0.50000000000000000     
  0.50000000000000000     
  0.50000000000000000     
  0.50000000000000000     
  0.50000000000000000     
  0.50000000000000000     
  0.50000000000000000     
  0.50000000000000000     
  0.50000000000000000     
  0.50000000000000000     
  0.50000000000000000     
  0.50000000000000000     
  0.50000000000000000     
  0.50000000000000000     
  0.50000000000000000     
  0.50000000000000000     
  0.50000000000000000     
  0.50000000000000000     
  0.50000000000000000     
  0.50000000000000000     
  0.50000000000000000     
  0.50000000000000000     
  0.50000000000000000     
  0.50000000000000000     
  0.50000000000000000     
  0.50000000000000000     
  0.50000000000000000     
  0.50000000000000000     
  0.50000000000000000     
  0.50000000000000000     
  0.50000000000000000     
  0.50000000000000000     
  0.50000000000000000     
  0.50000000000000000     
  0.50000000000000000     
  0.50000000000000000     
  0.50000000000000000     
  0.50000000000000000     
  0.50000000000000000     
  0.50000000000000000     
  0.50000000000000000     
  0.50000000000000000     
  0.50000000000000000     
  0.50000000000000000     
  0.50000000000000000     
  0.50000000000000000     
  0.50000000000000000     
  0.50000000000000000     
  0.50000000000000000     
  0.50000000000000000     
  0.50000000000000000     
  0.50000000000000000     
  0.50000000000000000     
  0.50000000000000000     
  0.50000000000000000     
  0.50000000000000000     
  0.50000000000000000     
  0.50000000000000000     
  0.50000000000000000     
  0.50000000000000000     
  0.50000000000000000     
  0.50000000000000000     
  0.50000000000000000     
  0.50000000000000000     
  0.50000000000000000     
  0.50000000000000000     
  0.50000000000000000     
  0.50000000000000000     
  0.50000000000000000     
  0.50000000000000000     
  0.50000000000000000     
  0.50000000000000000     
  0.50000000000000000     
  0.50000000000000000     
  0.50000000000000000     
  0.50000000000000000     
  0.50000000000000000     
  0.50000000000000000     
  0.50000000000000000     
  0.50000000000000000     
  0.50000000000000000     
  0.50000000000000000     
  0.50000000000000000     
  0.50000000000000000     
  0.50000000000000000     
  0.50000000000000000     
  0.50000000000000000     
  0.50000000000000000     
  0.50000000000000000     
  0.50000000000000000     
  0.50000000000000000     
  0.50000000000000000     
  0.50000000000000000     
  0.50000000000000000     
  0.50000000000000000     
  0.50000000000000000     
  0.50000000000000000     
  0.50000000000000000     
  0.50000000000000000     
  0.50000000000000000     
  0.50000000000000000     
  0.50000000000000000     
  0.50000000000000000     
  0.50000000000000000     
  0.50000000000000000     
  0.50000000000000000     
  0.50000000000000000     
  0.50000000000000000     
  0.50000000000000000     
  0.50000000000000000     
  0.50000000000000000     
  0.50000000000000000     
  0.50000000000000000     
  0.50000000000000000     
  0.50000000000000000     
  0.50000000000000000     
  0.50000000000000000     
  0.50000000000000000     
  0.50000000000000000     
  0.50000000000000000     
  0.50000000000000000     
  0.50000000000000000     
  0.50000000000000000     
  0.50000000000000000     
  0.50000000000000000     
  0.50000000000000000     
  0.50000000000000000     
  0.50000000000000000     
  0.50000000000000000     
  0.50000000000000000     
  0.50000000000000000     
  0.50000000000000000     
  0.50000000000000000     
  0.50000000000000000     
