# vtk DataFile Version 5.1
Data.vtk
ASCII
DATASET UNSTRUCTURED_GRID
 
POINTS 500 float
   8.4933260623768252       -4.0722017997418822        1.1483396754872406     
   5.0197569576864227       -6.8874032930647484       -1.0172371279338610     
   4.2814649946561412       -5.5084514759900056       -3.1893689402727561     
 -0.74251036490668165       -8.5177724494217824      -0.85251286436535101     
   5.7517084671516123       -7.3581474663578987       -1.7279128813014104     
   5.3066382167177322       -5.0243724423289216       -1.4458933888219210     
   6.1558971485374876       -4.9234954175741015        3.1982705891303271     
   2.2893528336061113       -7.3629987126673919       0.77880084818118478     
   5.8186009737946982       -6.3925176307047611       -3.9403892761390926     
   8.5509591320569651       -1.3290324537845151       -2.5381061876994759     
   5.2212391448901307       -7.5103811071150188       -2.5651616099296191     
  -1.8225304656672998       -7.3159914546009794       -3.9090450109305017     
   3.1933814946866255       -7.0902751252835481        4.1108552241244469     
   7.0582366682444100       -3.9132599665176837       -2.7810448119283526     
   2.9353657184858268       -8.0625355647780950       0.36786150225744169     
   1.5935027352885973       -6.3002411779518228       -2.1543245069555552     
   3.4993199148080096       -8.1993039804115497       -3.2836102852604871     
   4.1169515262522340       -8.5021795631979664      -0.91286074005553974     
   6.8052056465848052       -6.0675043373211990        2.6694827693611756     
  -4.8012949279276740E-002  -9.1584653186539402       -2.5217757363564735     
   2.1191181568102895       -7.3283114096206710      -0.98186401567830839     
   3.4048427809371526       -5.5266970849890544       -2.3228888695821994     
   4.5726035730400962       -4.4599332011535369        7.0320938731851816     
   1.2641364482106867       -7.2588089185725195        5.9969419424937254     
   6.0754956333088916       -4.6671435054587747       -3.9730449168688988     
   6.0398775660138382       -4.4216177491657387       -1.1091318444293636     
   5.7370843197078134       -5.5896153469884888        1.7303024840944390     
   3.2532752066865900       -5.9271699929316588       -1.3383528213820273     
   6.4315128067566896       -4.9356292986236410       -4.9515467087870642     
  0.30425315253630603       -6.9633270785277119        3.1152094206090046     
  -2.3472146149864193       -9.0752076386303351       -1.4924154788297654     
   7.4749962737107767       -5.2681015128080482        2.5576852075130967     
   5.0233074209521460       -3.9320087134158768       -6.9901688493369631     
   7.5343571895950561       -4.0687953325376958       -1.3252213130355117     
   8.9214057537570071       -2.9136359338496951       -1.4474229296973793     
  0.94443837022127219       -6.1859895761519024       -2.9413523680079439     
  -2.4134303868077498       -9.1674157197252981      -0.48691266642422121     
   5.2967774135615544       -6.2912437415633686        4.7553888981916534     
   4.4448314931825772       -5.8663454563953374        4.4099426780260433     
   7.3806745228462196       -4.8629564471259092        3.4671171318833975     
   8.1415604278424603       -4.8499412850354870       0.62720583397216778     
   3.5226186679936280       -8.5422169357063105        2.1941009618598737     
   9.0551852207265977       -2.1883339720217880        1.7689158738571416     
   1.0460038943573697       -8.6356005566960086        3.8187359117711845     
   3.3549290568887007       -7.1087375464796700       -5.3348271950324913     
   8.0431333634233440       -3.2740683709437581       -3.4753943122079449     
   2.1050024552643953       -5.4774904562811013        4.7934844093321454     
 -0.13915009888864072       -6.3640692113560409       -2.5874992493384048     
   2.5667064214598660       -7.3339070157447788       -3.7383056540029869     
   8.3747930316177790      -0.73626125185827385       -1.3067827957054865     
 -0.52873384624829400       -7.2915292912402929       -2.7270664770331017     
   7.0731543570724797       -4.7398233731621406       -4.2094722525283768     
   2.8040220625312107       -7.1921736479402485      -0.10712440342907147     
   4.3338680868270636       -4.9488668196904788      -0.97190625714096668     
   4.9329039071332428       -4.2179834722905785        5.4707465622225495     
  0.68883571131247423       -8.9320161063967145       -3.1614098526211771     
   8.1016526251082706       -2.5084096906885831      -0.30748337787792129     
   5.5717875089293729       -3.1475008448713613       -6.6996186385291150     
   1.0908334365423347       -6.9023995498470327       -3.8326924810015943     
   4.7412414001263414       -6.5885970129914471        2.8163347218711761     
   4.1832772063176220       -6.3935265560939758       0.95186101631929576     
  -1.5045119516934755       -7.1736086901242659       -2.4709805218565712     
   3.4624198911869324       -6.0209742807942295        6.4814797525594994     
   1.1118625814324399       -6.6722201996999049       -1.2910183792166787     
   4.0579889403364993       -7.2369513770700191       -4.6267637794374092     
   4.9335003461487181       -5.8979044052625635       -5.5776006137823853     
   5.3133253608043347       -5.3376481948116385       -4.0983503210565333     
   1.0950123075801945       -9.4366744923625845       -3.2889623484174922E-002
   9.0812905011006144       -1.0370367006355083      -0.47626748366363869     
   2.6396907612752449       -8.0519567244630554        1.7719778033750242     
   2.5630276495742756       -8.4246559945036363       -3.5637876545825389     
   6.1655525059504726       -3.8021783233265896        6.1462252158878954     
   3.0242055349327051       -8.8964628992555657        1.3993385660150450     
   2.8688292353765310       -6.6419702847311042        2.5444156130468145     
   1.3312833377486544       -6.1875041965819824        2.5749892096477756     
   5.1548512872710761       -3.6775088919345533       -2.9029466729972557     
   1.9438340906011571       -7.6361070199090548        5.3063807609149753     
   2.8959550368934030E-002  -7.6765591056294014       0.62818009892667148     
   4.5960326357500998       -5.0541251518771642       0.10964868881163764     
  -1.9255785550942066       -8.9891106323860139       -2.3950565744784904     
   8.8474444815778792       -3.3536912597107871       0.52060240497083177     
   8.7122041715112868       -3.6877235060475702      -0.84712735002409623     
   4.4571885563298048       -5.5248972667437295        2.5054100018403567     
   7.8233729626982091       -2.8329862809488859        1.8708874325028617     
  0.12556845183744336       -6.6288278544123402        4.5680185883243443     
   3.9255342575974597       -7.4416334435031057        2.0628967701286958     
   2.6522242678135317       -7.0499801812839387        1.6563409196726431     
  0.18299945349543575       -6.6588106288877293       -1.6861219425843921     
 -0.54989879274476505       -7.7290368038969026        5.4963333738564861     
   8.8930321363541527       -2.1685265859939431       -2.1139237787385414     
   3.1466817601260928       -6.1262642394444349       -5.2296964480089860     
   7.0436733286075297       -5.9860612135123787       -2.1912375495523011     
  0.97164704006322566       -6.1857418961155455      -0.42861997885179109     
  0.61360773640621857       -7.3999799440620535       -2.2044292803329495     
   7.4253482490165803       -2.3153865709357762       -3.2793829251296573     
   6.1680912381460935       -4.3695047256575217       -5.7336544245312027     
 -0.92509912605083555       -7.0133244322706734        3.4155503932769542     
   8.9712630985970598       -2.3990628287982614       0.79325849861675868     
   8.4375072012528669       -3.7923042950975279        2.1494631803641551     
   8.6295140706509361      -0.59096824234772904        3.6587229737044571     
   1.5449776329968425       -9.1198996692537779       -2.1657678408549650     
  -1.2200405651529145       -7.7858178536223450       -3.2570603952575290     
   4.8221629525792062       -5.1285348822987054       -4.9438931200049687     
   7.8285277023153856       -5.3410051907503187      -0.30450839424675757     
   5.2981255903607334       -4.0606449837526739        2.4879633113765944     
   4.3271539416285147       -7.3689125397334632        1.1443210472841978     
   7.2020597012250196       -1.6494481001497008       -5.9524289887103254     
   1.5855719423601735       -8.2461545790273210       -1.6794709680023410     
  -1.1293810491837735       -9.3939144119560272       0.84481828771687795     
   1.6081157007489253       -8.4729842846715737      -0.70516781057525035     
   5.7666727020424906       -5.1954778149091361      -0.53775030211769814     
   6.8362456572219008       -3.4585268967537650       -1.8531324813492640     
   1.7961733820715022       -8.0730295545775004       -4.6744013071779555     
   5.1076338219251038       -7.9059429730936230       -1.1763146864472811     
  0.29494778384828507       -6.6357645529283404       0.20941401691649369     
   6.3446125527203021       -6.7116592427161894       -2.2248324352717681     
   3.1637783772046593       -7.8053203173966939       -4.3928287173227867     
   1.0055181570962552       -7.1139588336132791       -4.9161869292366491     
   5.0801092990169527       -3.6979024016323474       -4.2550322772393834     
   6.8896261094844657       -5.1219722461364663       0.11339894558759155     
   9.0620255391971387      -0.52745088945069440       -2.2175966721584239     
   1.9064811255559089       -9.2713868385319245       0.80543254723630509     
  -2.5364902590064049       -8.3624567625667723        3.7201376742228800     
   6.7571349040919593       -3.7424315871157812        3.5553585330972597     
   2.4919708015268451       -5.9228315957159854        1.9316372810402986     
[...]
POINT_DATA  500
SCALARS radius float
LOOKUP_TABLE default
  0.50000000000000000     
  0.50000000000000000     
  0.50000000000000000     
  0.50000000000000000     
  0.50000000000000000     
  0.50000000000000000     
  0.50000000000000000     
  0.50000000000000000     
  0.50000000000000000     
  0.50000000000000000     
  0.50000000000000000     
  0.50000000000000000     
  0.50000000000000000     
  0.50000000000000000     
  0.50000000000000000     
  0.50000000000000000     
  0.50000000000000000     
  0.50000000000000000     
  0.50000000000000000     
  0.50000000000000000     
  0.50000000000000000     
  0.50000000000000000     
  0.50000000000000000     
  0.50000000000000000     
  0.50000000000000000     
  0.50000000000000000     
  0.50000000000000000     
  0.50000000000000000     
  0.50000000000000000     
  0.50000000000000000     
  0.50000000000000000     
  0.50000000000000000     
  0.50000000000000000     
  0.50000000000000000     
  0.50000000000000000     
  0.50000000000000000     
  0.50000000000000000     
  0.50000000000000000     
  0.50000000000000000     
  0.50000000000000000     
  0.50000000000000000     
  0.50000000000000000     
  0.50000000000000000     
  0.50000000000000000     
  0.50000000000000000     
  0.50000000000000000     
  0.50000000000000000     
  0.50000000000000000     
  0.50000000000000000     
  0.50000000000000000     
  0.50000000000000000     
  0.50000000000000000     
  0.50000000000000000     
  0.50000000000000000     
  0.50000000000000000     
  0.50000000000000000     
  0.50000000000000000     
  0.50000000000000000     
  0.50000000000000000     
  0.50000000000000000     
  0.50000000000000000     
  0.50000000000000000     
  0.50000000000000000     
  0.50000000000000000     
  0.50000000000000000     
  0.50000000000000000     
  0.50000000000000000     
  0.50000000000000000     
  0.50000000000000000     
  0.50000000000000000     
  0.50000000000000000     
  0.50000000000000000     
  0.50000000000000000     
  0.50000000000000000     
  0.50000000000000000     
  0.50000000000000000     
  0.50000000000000000     
  0.50000000000000000     
  0.50000000000000000     
  0.50000000000000000     
  0.50000000000000000     
  0.50000000000000000     
  0.50000000000000000     
  0.50000000000000000     
  0.50000000000000000     
  0.50000000000000000     
  0.50000000000000000     
  0.50000000000000000     
  0.50000000000000000     
  0.50000000000000000     
  0.50000000000000000     
  0.50000000000000000     
  0.50000000000000000     
  0.50000000000000000     
  0.50000000000000000     
  0.50000000000000000     
  0.50000000000000000     
  0.50000000000000000     
  0.50000000000000000     
  0.50000000000000000     
  0.50000000000000000     
  0.50000000000000000     
  0.50000000000000000     
  0.50000000000000000     
  0.50000000000000000     
  0.50000000000000000     
  0.50000000000000000     
  0.50000000000000000     
  0.50000000000000000     
  0.50000000000000000     
  0.50000000000000000     
  0.50000000000000000     
  0.50000000000000000     
  0.50000000000000000     
  0.50000000000000000     
  0.50000000000000000     
  0.50000000000000000     
  0.50000000000000000     
  0.50000000000000000     
  0.50000000000000000     
  0.50000000000000000     
  0.50000000000000000     
  0.50000000000000000     
  0.50000000000000000     
  0.50000000000000000     
  0.50000000000000000     
  0.50000000000000000     
  0.50000000000000000     
  0.50000000000000000     
  0.50000000000000000     
  0.50000000000000000     
  0.50000000000000000     
  0.50000000000000000     
  0.50000000000000000     
  0.50000000000000000     
  0.50000000000000000     
  0.50000000000000000     
  0.50000000000000000     
  0.50000000000000000     
  0.50000000000000000     
  0.50000000000000000     
  0.50000000000000000     
  0.50000000000000000     
  0.50000000000000000     
  0.50000000000000000     
  0.50000000000000000     
  0.50000000000000000     
  0.50000000000000000     
  0.50000000000000000     
  0.50000000000000000     
  0.50000000000000000     
  0.50000000000000000     
  0.50000000000000000     
  0.50000000000000000     
  0.50000000000000000     
  0.50000000000000000     
  0.50000000000000000     
  0.50000000000000000     
  0.50000000000000000     
  0.50000000000000000     
  0.50000000000000000     
  0.50000000000000000     
  0.50000000000000000     
  0.50000000000000000     
  0.50000000000000000     
  0.50000000000000000     
  0.50000000000000000     
  0.50000000000000000     
  0.50000000000000000     
  0.50000000000000000     
  0.50000000000000000     
  0.50000000000000000     
  0.50000000000000000     
  0.50000000000000000     
  0.50000000000000000     
  0.50000000000000000     
  0.50000000000000000     
  0.50000000000000000     
  0.50000000000000000     
  0.50000000000000000     
  0.50000000000000000     
  0.50000000000000000     
  0.50000000000000000     
  0.50000000000000000     
  0.50000000000000000     
  0.50000000000000000     
  0.50000000000000000     
  0.50000000000000000     
  0.50000000000000000     
  0.50000000000000000     
  0.50000000000000000     
  0.50000000000000000     
  0.50000000000000000     
  0.50000000000000000     
  0.50000000000000000     
  0.50000000000000000     
  0.50000000000000000     
  0.50000000000000000     
  0.50000000000000000     
  0.50000000000000000     
  0.50000000000000000     
  0.50000000000000000     
  0.50000000000000000     
  0.50000000000000000     
  0.50000000000000000     
  0.50000000000000000     
  0.50000000000000000     
  0.50000000000000000     
  0.50000000000000000     
  0.50000000000000000     
  0.50000000000000000     
  0.50000000000000000     
  0.50000000000000000     
  0.50000000000000000     
  0.50000000000000000     
  0.50000000000000000     
  0.50000000000000000     
  0.50000000000000000     
  0.50000000000000000     
  0.50000000000000000     
  0.50000000000000000     
  0.50000000000000000     
  0.50000000000000000     
  0.50000000000000000     
  0.50000000000000000     
  0.50000000000000000     
  0.50000000000000000     
  0.50000000000000000     
  0.50000000000000000     
  0.50000000000000000     
  0.50000000000000000     
  0.50000000000000000     
  0.50000000000000000     
  0.50000000000000000     
  0.50000000000000000     
  0.50000000000000000     
  0.50000000000000000     
  0.50000000000000000     
  0.50000000000000000     
  0.50000000000000000     
  0.50000000000000000     
  0.50000000000000000     
  0.50000000000000000     
  0.50000000000000000     
  0.50000000000000000     
  0.50000000000000000     
  0.50000000000000000     
  0.50000000000000000     
  0.50000000000000000     
  0.50000000000000000     
  0.50000000000000000     
  0.50000000000000000     
  0.50000000000000000     
  0.50000000000000000     
  0.50000000000000000     
  0.50000000000000000     
  0.50000000000000000     
  0.50000000000000000     
  0.50000000000000000     
  0.50000000000000000     
  0.50000000000000000     
  0.50000000000000000     
  0.50000000000000000     
  0.50000000000000000     
  0.50000000000000000     
  0.50000000000000000     
  0.50000000000000000     
  0.50000000000000000     
  0.50000000000000000     
  0.50000000000000000     
  0.50000000000000000     
  0.50000000000000000     
  0.50000000000000000     
  0.50000000000000000     
  0.50000000000000000     
  0.50000000000000000     
  0.50000000000000000     
  0.50000000000000000     
  0.50000000000000000     
  0.50000000000000000     
  0.50000000000000000     
  0.50000000000000000     
  0.50000000000000000     
  0.50000000000000000     
  0.50000000000000000     
  0.50000000000000000     
  0.50000000000000000     
  0.50000000000000000     
  0.50000000000000000     
  0.50000000000000000     
  0.50000000000000000     
  0.50000000000000000     
  0.50000000000000000     
  0.50000000000000000     
  0.50000000000000000     
  0.50000000000000000     
  0.50000000000000000     
  0.50000000000000000     
  0.50000000000000000     
  0.50000000000000000     
  0.50000000000000000     
  0.50000000000000000     
  0.50000000000000000     
  0.50000000000000000     
  0.50000000000000000     
  0.50000000000000000     
  0.50000000000000000     
  0.50000000000000000     
  0.50000000000000000     
  0.50000000000000000     
  0.50000000000000000     
  0.50000000000000000     
  0.50000000000000000     
  0.50000000000000000     
  0.50000000000000000     
  0.50000000000000000     
  0.50000000000000000     
  0.50000000000000000     
  0.50000000000000000     
  0.50000000000000000     
  0.50000000000000000     
  0.50000000000000000     
  0.50000000000000000     
  0.50000000000000000     
  0.50000000000000000     
  0.50000000000000000     
  0.50000000000000000     
  0.50000000000000000     
  0.50000000000000000     
  0.50000000000000000     
  0.50000000000000000     
  0.50000000000000000     
  0.50000000000000000     
  0.50000000000000000     
  0.50000000000000000     
  0.50000000000000000     
  0.50000000000000000     
  0.50000000000000000     
  0.50000000000000000     
  0.50000000000000000     
  0.50000000000000000     
  0.50000000000000000     
  0.50000000000000000     
  0.50000000000000000     
  0.50000000000000000     
  0.50000000000000000     
  0.50000000000000000     
  0.50000000000000000     
  0.50000000000000000     
  0.50000000000000000     
  0.50000000000000000     
  0.50000000000000000     
  0.50000000000000000     
  0.50000000000000000     
  0.50000000000000000     
  0.50000000000000000     
  0.50000000000000000     
  0.50000000000000000     
  0.50000000000000000     
  0.50000000000000000     
  0.50000000000000000     
  0.50000000000000000     
  0.50000000000000000     
  0.50000000000000000     
  0.50000000000000000     
  0.50000000000000000     
  0.50000000000000000     
  0.50000000000000000     
  0.50000000000000000     
  0.50000000000000000     
  0.50000000000000000     
  0.50000000000000000     
  0.50000000000000000     
  0.50000000000000000     
  0.50000000000000000     
  0.50000000000000000     
  0.50000000000000000     
  0.50000000000000000     
  0.50000000000000000     
  0.50000000000000000     
  0.50000000000000000     
  0.50000000000000000     
  0.50000000000000000     
  0.50000000000000000     
  0.50000000000000000     
  0.50000000000000000     
  0.50000000000000000     
  0.50000000000000000     
  0.50000000000000000     
  0.50000000000000000     
  0.50000000000000000     
  0.50000000000000000     
  0.50000000000000000     
  0.50000000000000000     
  0.50000000000000000     
  0.50000000000000000     
  0.50000000000000000     
  0.50000000000000000     
  0.50000000000000000     
  0.50000000000000000     
  0.50000000000000000     
  0.50000000000000000     
  0.50000000000000000     
  0.50000000000000000     
  0.50000000000000000     
  0.50000000000000000     
  0.50000000000000000     
  0.50000000000000000     
  0.50000000000000000     
  0.50000000000000000     
  0.50000000000000000     
  0.50000000000000000     
  0.50000000000000000     
  0.50000000000000000     
  0.50000000000000000     
  0.50000000000000000     
  0.50000000000000000     
  0.50000000000000000     
  0.50000000000000000     
  0.50000000000000000     
  0.50000000000000000     
  0.50000000000000000     
  0.50000000000000000     
  0.50000000000000000     
  0.50000000000000000     
  0.50000000000000000     
  0.50000000000000000     
  0.50000000000000000     
  0.50000000000000000     
  0.50000000000000000     
  0.50000000000000000     
  0.50000000000000000     
  0.50000000000000000     
  0.50000000000000000     
  0.50000000000000000     
  0.50000000000000000     
  0.50000000000000000     
  0.50000000000000000     
  0.50000000000000000     
  0.50000000000000000     
  0.50000000000000000     
  0.50000000000000000     
  0.50000000000000000     
  0.50000000000000000     
  0.50000000000000000     
  0.50000000000000000     
  0.50000000000000000     
  0.50000000000000000     
  0.50000000000000000     
  0.50000000000000000     
  0.50000000000000000     
  0.50000000000000000     
  0.50000000000000000     
  0.50000000000000000     
  0.50000000000000000     
  0.50000000000000000     
  0.50000000000000000     
  0.50000000000000000     
  0.50000000000000000     
  0.50000000000000000     
  0.50000000000000000     
  0.50000000000000000     
  0.50000000000000000     
  0.50000000000000000     
  0.50000000000000000     
  0.50000000000000000     
  0.50000000000000000     
  0.50000000000000000     
  0.50000000000000000     
  0.50000000000000000     
  0.50000000000000000     
  0.50000000000000000     
  0.50000000000000000     
  0.50000000000000000     
  0.50000000000000000     
  0.50000000000000000     
  0.50000000000000000     
  0.50000000000000000     
  0.50000000000000000     
  0.50000000000000000     
  0.50000000000000000     
  0.50000000000000000     
  0.50000000000000000     
  0.50000000000000000     
  0.50000000000000000     
  0.50000000000000000     
  0.50000000000000000     
  0.50000000000000000     
  0.50000000000000000     
  0.50000000000000000     
  0.50000000000000000     
  0.50000000000000000     
  0.50000000000000000     
  0.50000000000000000     
  0.50000000000000000     
  0.50000000000000000     
  0.50000000000000000     
  0.50000000000000000     
  0.50000000000000000     
  0.50000000000000000     
