# vtk DataFile Version 5.1
Data.vtk
ASCII
DATASET UNSTRUCTURED_GRID
 
POINTS 500 float
   5.5460587542624165       -7.6770833242896810       0.73078724734455691     
   4.4274426804628915       -7.2567544674713336       -1.4770880436000966     
   7.7217188601895108       -2.4308226730739038       -1.2721253498786527     
  -1.1845566218682972       -8.4631186713477398       -1.3702594414065661     
   1.3853931556350150       -9.1474180138973953       -2.1576662442865699     
   5.6536742865649243       -4.7506150654050883       -1.4401208043152673     
   6.2666952472106798       -5.0934955105265667        3.0352581542525319     
   2.6796293488422145       -7.1718987370472913       0.48584235884098620     
   3.7457592022349737       -7.8068454050531688       -3.9080088025247743     
   8.6837103258076400       -3.5436415701123538       -1.5093480477900678     
   1.8650757855973397       -8.7772886441944440       -3.1200944402869935     
   3.5364753204370949       -4.6315599317057146       -5.7703726643789475     
   3.1846128770229374       -7.0765637271593151        3.6281735976080149     
   7.2906911799696301       -3.8694085016892124       -1.2615002796032413     
   1.9240349642157559       -8.3917333769262061       0.21641750778071478     
   3.2994064221624031       -5.8359103801556591       -2.6774448529464272     
 -0.40637059774979367       -8.5861650213115404       -4.0448919366099556     
 -0.54910883780749875       -9.4020018111016750       -1.2282300462270475     
   3.5036992465568875       -8.4651042495451279        2.4987633581209878     
  -2.5683047357624402       -8.4477745714210570       -3.5055762573815517     
   2.5659806687981472       -7.1391622039424538       -1.3018545592431776     
   9.2420755501425695       0.43076318480033898      -0.25153255809160796     
   5.4087677438585535       -3.9477267721806291        6.4867989090182938     
   3.3604499402184693       -4.9395275038824167        6.0816786676137609     
   7.1540411309846634       -3.8228044391093219       -2.4543033795111278     
   7.8816191029201415       -2.6638976294989751       0.43326827053116790     
   5.5285574933324559       -6.2921734797930071        2.0058099291512628     
   5.8027480297720082       -3.7905946164535691       -1.2022186061977889     
   5.1770676477153010       -6.2727047440552557       -4.8453443836875154     
  0.80568380032365250       -6.8884389377516202        3.1009602125120752     
  -2.5035920022104454       -7.5566487979538302       -9.2835761955061560E-002
   4.4688061777958277       -7.9735151616292255        2.5884195095269700     
   6.4828362977237983       -4.0655423531977366       -5.4944916476882550     
   7.5426734549424959       -4.1278833903152856      -0.14648278044356675     
   7.2681246155279053       -5.9700141144983494       -1.0840306798024950     
   3.6941762830758660       -4.5916090663335689       -3.5795247210924237     
  -2.2989478394208338       -7.9726162068754842       0.84008923302943284     
   2.3691666635573458       -7.8343621430078265        4.8230890070278276     
   4.9023578620638490       -5.4702261141952588        4.5535829801319148     
   4.5417621212321295       -7.4568347973076063        3.7287403896214810     
   4.7413010168046048       -8.2201209315607127       0.44694247371243478     
 -0.31337665859074287       -9.0560315998780982        2.8529716896093720     
   7.1598036367000439       -6.1225313019642451        1.2226105059886190     
 -0.90751584283734676       -7.7191796543016284        5.4602971639449862     
   1.5690774481292671       -7.4600196337669935       -5.6689601013303532     
   6.4886148619482542       -6.4231368491980962       -2.6034149086448846     
   6.5053934389331687       -2.7711847284335778        4.9056649551388176     
   2.3176016913313977       -5.7791869519423207       -2.8593418013388310     
   3.1992963196333553       -6.9025429770784328       -4.0273330483913563     
   9.2000072221049347       -2.1223703224685235      -0.20537098146384974     
   1.4001530456978746       -6.8149013045909994       -3.4471979470773668     
   4.9872825903094427       -6.9487655820105880       -4.1326337750692304     
   3.1520482453192744       -7.1381562461379549      -0.39954652543004565     
   9.3004181970840705       -1.3924019457369932       0.47049662907726647     
   7.8330584494518209       -2.4034960753737362        3.5752739002775393     
 -0.88634990314318285       -7.2017379891614901       -4.5674222759418992     
   8.9811735884121529       -3.0443326214604820       0.15073658364854495     
   7.8446461430877772       -2.6992859799022830       -4.4166689029133845     
   3.4535223551442473       -5.2740173799721299       -4.2853715890823576     
   3.8146249539769306       -7.5138755537270567        1.9870731767797387     
   4.4965374832541700       -6.2479675382418343       0.46299050647416806     
   1.5284959676549292       -5.4815284893237601       -3.9729899262690869     
   3.8781626356888861       -5.3050620664457133        6.8580374365035723     
   3.0367900154970129       -6.0116715165080885       -1.7243032544394081     
   1.1200672338875661       -8.0337380950351918       -4.9451379333521635     
   3.4441216476076191       -6.9232646170125314       -5.5144042688255599     
   6.4999302915383943       -4.3709370416876263       -3.0303622006484918     
  -2.7186638555765796       -9.0636716838670282       0.84242116073499718     
   8.7082028531939120       -3.7386546278322008      -0.52548424449770348     
   1.9006167809907799       -8.1459828315234244        1.7052390297418201     
  -1.0908138014597377       -8.1736236980978365       -4.7122455611743685     
   4.9217821838656697       -5.3956081732564378        5.9561155246086379     
  -1.4234988629814691       -9.1745279837854063        2.0130001002043434     
   3.3367607626423528       -6.2908342191220896        2.0851559667884549     
   7.4695408637701863       -1.9455086197693592        4.5337473900044438     
   8.9223582177475436       -2.6398386780278478       -1.8641901401193042     
   1.4518291940445613       -6.9210068866939984        6.3017646820121893     
  0.65351952977221994       -7.7110838088036102       0.12230946175856557     
   5.8970550125215375       -4.8413984373691319       0.48155338946504217     
  -1.9637412691941707       -8.1354985787673488       -1.9946313396905448     
   6.2272721576938048       -7.1696262459380371       0.15756362643014360     
   6.2061635682153131       -7.1314531842255882      -0.90681744703254841     
   5.2461724223809014       -4.9169330017295074        2.7677920326214438     
   8.4567467774875986       -3.5992509372297437        2.2813909794820586     
   2.8089827693483049       -6.1854021446660665        3.8824339108541261     
   2.8757364816531332       -7.9440610500800979        1.8679294622056120     
   3.2020349873886822       -6.8755863449154218        1.2852541752252853     
   2.0999596881723797       -6.3169566459370525       -1.9393864452896683     
   2.4618355172443884       -5.5556249169837484        7.1413281640851283     
   7.7535094104907980       -5.2533433857476668       -1.5884037910922486     
   5.2089952642263304       -5.2363826884020570       -4.4312835642945929     
   3.4688595109494686       -8.5664720146460649       -2.1983146059579481     
   2.5311607056275940       -6.2712043278662701      -0.80655217885764752     
  0.88003797446887511       -7.2269353142116186       -2.6991335343946590     
   8.5173476758552251       -3.3839315145481330       -2.5008026457557695     
   6.2329081200307215       -5.0859355369207195       -5.0101683187348032     
   3.3155294809395106       -4.6242307602745614        4.2820074594121937     
   7.3660469659142231       -5.9892456334003494       0.25269994676829360     
   5.9339449491076754       -7.1893158687803655        1.8282211732675233     
   7.9733090301885339       -4.3916621397312827        2.6915580721855061     
  -2.0809385846467436       -8.8703374258489109       -2.6736521721327988     
   1.9465530900285082       -6.0309479284250802       -4.7093342427850358     
   8.1726436489507321      -0.71856393504529870       -3.2789124010887947     
   4.0798734601730322       -8.5669313072560893      -0.31061194215276283     
   8.3769347739111755      -0.65009414231382290        3.3373066314713462     
   3.5014440403760503       -7.8142785476092751        1.0858755552797228     
   7.8335852167171849       -3.9161235933020935       -3.6810261087692226     
   1.4431310683477034       -8.1001098153826110       -2.5175787209410947     
  -1.7174658114939985       -7.3854837924408345        2.1508615657529755     
  0.81968992512255268       -8.4761766625850115       -1.2888400151540356     
   6.1887971841817668       -4.4989302519992362      -0.56785422667538910     
   7.8213947562986537       -3.2525820055045482      -0.65298043854007226     
 -0.33503595852886198       -7.5370111589930877       -5.7467108113075938     
  0.44568488272394785       -9.3579451967670586       -1.5758208208627358     
   1.9162963376485243       -6.2053836519205863       -2.0619047725519472E-002
   2.4906089410750800       -8.8887747774842101       -2.2442461695882856     
 -0.10955881389483565       -8.1275547311083098       -4.9172464465873782     
   4.6664627420836755       -3.6179655282258416       -4.5183331022056787     
   8.7188131591888514       -2.4617240621854495       -2.8312696298494222     
   6.3991845056112702       -5.6913137999623693       0.30207121289739447     
   9.0015449141171757       -2.8456465224534142      -0.86714102663631809     
   8.8059490072288332E-002  -8.6116705046370683        1.2173423060436912     
 -0.79524328866434946       -6.8952189234825205        4.3516678834478331     
   7.3383418973059795       -3.4528152183145835        2.6184611901106072     
   3.6577578842133702       -5.3772135002743466        1.8352371060388144     
[...]
POINT_DATA  500
SCALARS radius float
LOOKUP_TABLE default
  0.50000000000000000     
  0.50000000000000000     
  0.50000000000000000     
  0.50000000000000000     
  0.50000000000000000     
  0.50000000000000000     
  0.50000000000000000     
  0.50000000000000000     
  0.50000000000000000     
  0.50000000000000000     
  0.50000000000000000     
  0.50000000000000000     
  0.50000000000000000     
  0.50000000000000000     
  0.50000000000000000     
  0.50000000000000000     
  0.50000000000000000     
  0.50000000000000000     
  0.50000000000000000     
  0.50000000000000000     
  0.50000000000000000     
  0.50000000000000000     
  0.50000000000000000     
  0.50000000000000000     
  0.50000000000000000     
  0.50000000000000000     
  0.50000000000000000     
  0.50000000000000000     
  0.50000000000000000     
  0.50000000000000000     
  0.50000000000000000     
  0.50000000000000000     
  0.50000000000000000     
  0.50000000000000000     
  0.50000000000000000     
  0.50000000000000000     
  0.50000000000000000     
  0.50000000000000000     
  0.50000000000000000     
  0.50000000000000000     
  0.50000000000000000     
  0.50000000000000000     
  0.50000000000000000     
  0.50000000000000000     
  0.50000000000000000     
  0.50000000000000000     
  0.50000000000000000     
  0.50000000000000000     
  0.50000000000000000     
  0.50000000000000000     
  0.50000000000000000     
  0.50000000000000000     
  0.50000000000000000     
  0.50000000000000000     
  0.50000000000000000     
  0.50000000000000000     
  0.50000000000000000     
  0.50000000000000000     
  0.50000000000000000     
  0.50000000000000000     
  0.50000000000000000     
  0.50000000000000000     
  0.50000000000000000     
  0.50000000000000000     
  0.50000000000000000     
  0.50000000000000000     
  0.50000000000000000     
  0.50000000000000000     
  0.50000000000000000     
  0.50000000000000000     
  0.50000000000000000     
  0.50000000000000000     
  0.50000000000000000     
  0.50000000000000000     
  0.50000000000000000     
  0.50000000000000000     
  0.50000000000000000     
  0.50000000000000000     
  0.50000000000000000     
  0.50000000000000000     
  0.50000000000000000     
  0.50000000000000000     
  0.50000000000000000     
  0.50000000000000000     
  0.50000000000000000     
  0.50000000000000000     
  0.50000000000000000     
  0.50000000000000000     
  0.50000000000000000     
  0.50000000000000000     
  0.50000000000000000     
  0.50000000000000000     
  0.50000000000000000     
  0.50000000000000000     
  0.50000000000000000     
  0.50000000000000000     
  0.50000000000000000     
  0.50000000000000000     
  0.50000000000000000     
  0.50000000000000000     
  0.50000000000000000     
  0.50000000000000000     
  0.50000000000000000     
  0.50000000000000000     
  0.50000000000000000     
  0.50000000000000000     
  0.50000000000000000     
  0.50000000000000000     
  0.50000000000000000     
  0.50000000000000000     
  0.50000000000000000     
  0.50000000000000000     
  0.50000000000000000     
  0.50000000000000000     
  0.50000000000000000     
  0.50000000000000000     
  0.50000000000000000     
  0.50000000000000000     
  0.50000000000000000     
  0.50000000000000000     
  0.50000000000000000     
  0.50000000000000000     
  0.50000000000000000     
  0.50000000000000000     
  0.50000000000000000     
  0.50000000000000000     
  0.50000000000000000     
  0.50000000000000000     
  0.50000000000000000     
  0.50000000000000000     
  0.50000000000000000     
  0.50000000000000000     
  0.50000000000000000     
  0.50000000000000000     
  0.50000000000000000     
  0.50000000000000000     
  0.50000000000000000     
  0.50000000000000000     
  0.50000000000000000     
  0.50000000000000000     
  0.50000000000000000     
  0.50000000000000000     
  0.50000000000000000     
  0.50000000000000000     
  0.50000000000000000     
  0.50000000000000000     
  0.50000000000000000     
  0.50000000000000000     
  0.50000000000000000     
  0.50000000000000000     
  0.50000000000000000     
  0.50000000000000000     
  0.50000000000000000     
  0.50000000000000000     
  0.50000000000000000     
  0.50000000000000000     
  0.50000000000000000     
  0.50000000000000000     
  0.50000000000000000     
  0.50000000000000000     
  0.50000000000000000     
  0.50000000000000000     
  0.50000000000000000     
  0.50000000000000000     
  0.50000000000000000     
  0.50000000000000000     
  0.50000000000000000     
  0.50000000000000000     
  0.50000000000000000     
  0.50000000000000000     
  0.50000000000000000     
  0.50000000000000000     
  0.50000000000000000     
  0.50000000000000000     
  0.50000000000000000     
  0.50000000000000000     
  0.50000000000000000     
  0.50000000000000000     
  0.50000000000000000     
  0.50000000000000000     
  0.50000000000000000     
  0.50000000000000000     
  0.50000000000000000     
  0.50000000000000000     
  0.50000000000000000     
  0.50000000000000000     
  0.50000000000000000     
  0.50000000000000000     
  0.50000000000000000     
  0.50000000000000000     
  0.50000000000000000     
  0.50000000000000000     
  0.50000000000000000     
  0.50000000000000000     
  0.50000000000000000     
  0.50000000000000000     
  0.50000000000000000     
  0.50000000000000000     
  0.50000000000000000     
  0.50000000000000000     
  0.50000000000000000     
  0.50000000000000000     
  0.50000000000000000     
  0.50000000000000000     
  0.50000000000000000     
  0.50000000000000000     
  0.50000000000000000     
  0.50000000000000000     
  0.50000000000000000     
  0.50000000000000000     
  0.50000000000000000     
  0.50000000000000000     
  0.50000000000000000     
  0.50000000000000000     
  0.50000000000000000     
  0.50000000000000000     
  0.50000000000000000     
  0.50000000000000000     
  0.50000000000000000     
  0.50000000000000000     
  0.50000000000000000     
  0.50000000000000000     
  0.50000000000000000     
  0.50000000000000000     
  0.50000000000000000     
  0.50000000000000000     
  0.50000000000000000     
  0.50000000000000000     
  0.50000000000000000     
  0.50000000000000000     
  0.50000000000000000     
  0.50000000000000000     
  0.50000000000000000     
  0.50000000000000000     
  0.50000000000000000     
  0.50000000000000000     
  0.50000000000000000     
  0.50000000000000000     
  0.50000000000000000     
  0.50000000000000000     
  0.50000000000000000     
  0.50000000000000000     
  0.50000000000000000     
  0.50000000000000000     
  0.50000000000000000     
  0.50000000000000000     
  0.50000000000000000     
  0.50000000000000000     
  0.50000000000000000     
  0.50000000000000000     
  0.50000000000000000     
  0.50000000000000000     
  0.50000000000000000     
  0.50000000000000000     
  0.50000000000000000     
  0.50000000000000000     
  0.50000000000000000     
  0.50000000000000000     
  0.50000000000000000     
  0.50000000000000000     
  0.50000000000000000     
  0.50000000000000000     
  0.50000000000000000     
  0.50000000000000000     
  0.50000000000000000     
  0.50000000000000000     
  0.50000000000000000     
  0.50000000000000000     
  0.50000000000000000     
  0.50000000000000000     
  0.50000000000000000     
  0.50000000000000000     
  0.50000000000000000     
  0.50000000000000000     
  0.50000000000000000     
  0.50000000000000000     
  0.50000000000000000     
  0.50000000000000000     
  0.50000000000000000     
  0.50000000000000000     
  0.50000000000000000     
  0.50000000000000000     
  0.50000000000000000     
  0.50000000000000000     
  0.50000000000000000     
  0.50000000000000000     
  0.50000000000000000     
  0.50000000000000000     
  0.50000000000000000     
  0.50000000000000000     
  0.50000000000000000     
  0.50000000000000000     
  0.50000000000000000     
  0.50000000000000000     
  0.50000000000000000     
  0.50000000000000000     
  0.50000000000000000     
  0.50000000000000000     
  0.50000000000000000     
  0.50000000000000000     
  0.50000000000000000     
  0.50000000000000000     
  0.50000000000000000     
  0.50000000000000000     
  0.50000000000000000     
  0.50000000000000000     
  0.50000000000000000     
  0.50000000000000000     
  0.50000000000000000     
  0.50000000000000000     
  0.50000000000000000     
  0.50000000000000000     
  0.50000000000000000     
  0.50000000000000000     
  0.50000000000000000     
  0.50000000000000000     
  0.50000000000000000     
  0.50000000000000000     
  0.50000000000000000     
  0.50000000000000000     
  0.50000000000000000     
  0.50000000000000000     
  0.50000000000000000     
  0.50000000000000000     
  0.50000000000000000     
  0.50000000000000000     
  0.50000000000000000     
  0.50000000000000000     
  0.50000000000000000     
  0.50000000000000000     
  0.50000000000000000     
  0.50000000000000000     
  0.50000000000000000     
  0.50000000000000000     
  0.50000000000000000     
  0.50000000000000000     
  0.50000000000000000     
  0.50000000000000000     
  0.50000000000000000     
  0.50000000000000000     
  0.50000000000000000     
  0.50000000000000000     
  0.50000000000000000     
  0.50000000000000000     
  0.50000000000000000     
  0.50000000000000000     
  0.50000000000000000     
  0.50000000000000000     
  0.50000000000000000     
  0.50000000000000000     
  0.50000000000000000     
  0.50000000000000000     
  0.50000000000000000     
  0.50000000000000000     
  0.50000000000000000     
  0.50000000000000000     
  0.50000000000000000     
  0.50000000000000000     
  0.50000000000000000     
  0.50000000000000000     
  0.50000000000000000     
  0.50000000000000000     
  0.50000000000000000     
  0.50000000000000000     
  0.50000000000000000     
  0.50000000000000000     
  0.50000000000000000     
  0.50000000000000000     
  0.50000000000000000     
  0.50000000000000000     
  0.50000000000000000     
  0.50000000000000000     
  0.50000000000000000     
  0.50000000000000000     
  0.50000000000000000     
  0.50000000000000000     
  0.50000000000000000     
  0.50000000000000000     
  0.50000000000000000     
  0.50000000000000000     
  0.50000000000000000     
  0.50000000000000000     
  0.50000000000000000     
  0.50000000000000000     
  0.50000000000000000     
  0.50000000000000000     
  0.50000000000000000     
  0.50000000000000000     
  0.50000000000000000     
  0.50000000000000000     
  0.50000000000000000     
  0.50000000000000000     
  0.50000000000000000     
  0.50000000000000000     
  0.50000000000000000     
  0.50000000000000000     
  0.50000000000000000     
  0.50000000000000000     
  0.50000000000000000     
  0.50000000000000000     
  0.50000000000000000     
  0.50000000000000000     
  0.50000000000000000     
  0.50000000000000000     
  0.50000000000000000     
  0.50000000000000000     
  0.50000000000000000     
  0.50000000000000000     
  0.50000000000000000     
  0.50000000000000000     
  0.50000000000000000     
  0.50000000000000000     
  0.50000000000000000     
  0.50000000000000000     
  0.50000000000000000     
  0.50000000000000000     
  0.50000000000000000     
  0.50000000000000000     
  0.50000000000000000     
  0.50000000000000000     
  0.50000000000000000     
  0.50000000000000000     
  0.50000000000000000     
  0.50000000000000000     
  0.50000000000000000     
  0.50000000000000000     
  0.50000000000000000     
  0.50000000000000000     
  0.50000000000000000     
  0.50000000000000000     
  0.50000000000000000     
  0.50000000000000000     
  0.50000000000000000     
  0.50000000000000000     
  0.50000000000000000     
  0.50000000000000000     
  0.50000000000000000     
  0.50000000000000000     
  0.50000000000000000     
  0.50000000000000000     
  0.50000000000000000     
  0.50000000000000000     
  0.50000000000000000     
  0.50000000000000000     
  0.50000000000000000     
  0.50000000000000000     
  0.50000000000000000     
  0.50000000000000000     
  0.50000000000000000     
  0.50000000000000000     
  0.50000000000000000     
  0.50000000000000000     
  0.50000000000000000     
  0.50000000000000000     
  0.50000000000000000     
  0.50000000000000000     
  0.50000000000000000     
  0.50000000000000000     
  0.50000000000000000     
  0.50000000000000000     
  0.50000000000000000     
  0.50000000000000000     
  0.50000000000000000     
  0.50000000000000000     
  0.50000000000000000     
  0.50000000000000000     
  0.50000000000000000     
  0.50000000000000000     
  0.50000000000000000     
  0.50000000000000000     
  0.50000000000000000     
  0.50000000000000000     
  0.50000000000000000     
  0.50000000000000000     
  0.50000000000000000     
  0.50000000000000000     
  0.50000000000000000     
  0.50000000000000000     
  0.50000000000000000     
  0.50000000000000000     
  0.50000000000000000     
  0.50000000000000000     
  0.50000000000000000     
  0.50000000000000000     
  0.50000000000000000     
  0.50000000000000000     
  0.50000000000000000     
  0.50000000000000000     
  0.50000000000000000     
  0.50000000000000000     
  0.50000000000000000     
  0.50000000000000000     
  0.50000000000000000     
  0.50000000000000000     
  0.50000000000000000     
  0.50000000000000000     
  0.50000000000000000     
  0.50000000000000000     
  0.50000000000000000     
  0.50000000000000000     
