# vtk DataFile Version 5.1
Data.vtk
ASCII
DATASET UNSTRUCTURED_GRID
 
POINTS 500 float
  0.43809457294263415       -9.3378590514559434        1.6920986212336806     
   8.8422955262887886      -0.58131940979124552       -2.0390241250285981     
   3.4259022076790973       -5.7684491934478581       0.78291605376278828     
   2.2969069696391622       -7.2602399736770193       -2.0972681731496463     
  -1.4702089514753864       -9.2338810135373546       -1.6806118052315668     
 -0.51313250401807475       -7.6423626056534504       -2.2340557130337997     
  0.36283199893212470       -8.1352959721631528        2.7555307682113614     
   3.9092132744556496       -6.4194967220230081        1.3687587967706467     
   7.1113979285946574       -4.4053858323759769       -1.5041883169528356     
   7.8045675008183961       -4.1733723972558892       -3.4515450532536054     
  -2.7617775853133062       -7.8361071331560908       -2.3822723275478106     
   7.4298798842766409       -1.8608644305101669       -5.4913967340293457     
   4.5271768976002233       -6.8219109215687395        2.7016694047462635     
  -6.6871728211919987E-002  -7.5989277781200171        1.2317370441183295     
  0.70748144024500803       -6.9764955851975010       -3.0090767173238397     
  -2.4126608808135490       -9.1108844316327495       -1.1920382796920765     
  -1.2407882786683291       -8.8400647089260787       -3.2503789584128673     
 -0.87714604187067990       -8.4719435103048450        1.8902005147473402     
   5.9994412638559593       -5.5774550224789801        2.9231491632739326     
   1.9618103530076187       -8.8958891888697558       -2.6953284978009999     
   4.9175830747201985       -6.0054817244390142      -0.44679809791232017     
   5.8134684491963196       -7.0943342142424788       -2.3796317077242866     
   7.3922074286613730       -5.6676134727034375        1.8520233608648580     
   4.9841743934574447       -5.6364633209311847        4.2429131866364012     
   1.1651633188528123       -8.5109818590984503       -1.0266255742267694     
   8.3060074643370783       -3.3658634234661182       -3.1329605939490492     
  0.51987691659058510       -6.6644232532738226        3.7500981605924908     
   6.9044591493971881       -3.0386702427258170       -2.6993619972784226     
   3.6728126665490519       -6.6233896891443296       -5.7351342457731507     
  -1.2292870834004612       -8.9424257454789462        2.9620488238962221     
   2.0056703455647518       -6.2843644952136355       -3.8936693079035551     
  -1.2731352281919499       -7.0664066706920394        4.6427944222255002     
   2.4504543481993406       -8.0092191168383913       -4.4829844436141926     
   1.0123917078905367       -7.5003839684793068        1.3638062913282050     
   6.3178091651014050       -6.9208586631557099       -1.5313006914626044     
   4.1453150569078137       -6.9863973450219010       -4.9244270520159263     
  0.94013027137867211       -5.7522519430087895       -7.4448760516224635     
   4.0521545370815915       -6.2664571776091833        5.8775833164115152     
   3.8109724486347631       -7.6844237324301625        1.0444762604588744     
   2.1823728627678163       -7.5911475180037273        5.2784211128382745     
   7.0522448376377360       -2.8234502924559037       0.52559701475273968     
  -2.0998783042110243       -7.9017840449311718        3.2511267354716042     
   1.6836204943604438       -7.1496830993561344        6.0253598488867048     
   7.1712683927809584       -2.6811091254041344        5.6137435795976520     
  0.47696072757579067       -7.6172796754344159       -5.4514269370738031     
  -1.3786329170458154       -8.0447809069116154       -4.8586794868912886     
   7.2794275682677032       -3.8129592305862139        2.4944679737783502     
  -2.1969110632857571       -8.2470534270273141       -1.6628705967993194     
   5.1346802923864612       -6.2906512818445748       -2.7039818251531562     
   3.8872010301882072       -5.6387792376660739       -9.6848378722519071E-002
 -0.74228615867195269       -7.1930531129987116       0.57036894098744018     
 -0.75497756813941630       -8.5178469750450638       -4.1384216547873258     
   5.2183127135053953       -5.7086055719995175       0.45962750531529961     
   9.0565288322324591       -2.0266469087074173        1.8151242171724697     
   7.7286084837989977       -1.9883797915988748        5.1237803657595160     
   5.2754648506527761       -5.4224791995957631       -5.7462976291421537     
   8.4323192118908690       -2.9098665142785478        3.2398394739266849     
   1.6141145586467285       -7.7302023490264453       -5.2766544714835533     
   6.3770730994184515       -6.3536908123197744       -3.0143594068235484     
   3.2604096390843562       -6.5989199864203751        4.5614972430894181     
   8.8619329619808145       -3.3210966440686542      -0.75994523719516616     
   7.3499506546310513       -3.1524182099862612       -5.1276195685325110     
   7.2238264395809786       -5.0129239007181488        3.5968485504546734     
  0.19769022793399463       -6.4885132701919170      -0.98372457135974145     
   4.8103571365684319       -7.4996025665331842       -3.2964069119553785     
   2.9367813730266068       -6.3855026438991374       -6.3696782843049435     
 -0.62927907485237167       -8.3478381499042502       -1.5183570711763474     
  0.95755378453725115       -6.2184403230826621        5.8493892278688673     
   2.2125445016982099       -9.2328720022317547       0.27018737114101443     
   3.9739039611194462       -5.7454458770619876        3.4721165242322596     
   2.8403700321710357       -5.4324028712762402       -6.7059082612926995     
   2.5659298648812006       -8.0311085044309038        4.3778883774922166     
   4.7374564866625688       -4.1774786525455934        4.6197062584268345     
   7.3455807905509163       -4.5023670621863232       0.67223784472346293     
   8.8310025840526372       -2.0988595377163191        2.8019119204432177     
   4.0292897206282543       -6.2742241874631048       -2.1539904656020834     
   6.0622908081491378       -4.9845637600475614        5.3528285517053700     
   3.1164320116334299       -6.8176194511162711      -0.35383081398448174     
  0.93739982676118772       -6.1245999753322913       -2.5370579127488395     
  -2.0472526671558127       -9.2758984936883024       0.12869369548769477     
  -2.9530511425056780E-002  -9.4754785162627169       0.68290925894282173     
   3.1106355312509715       -6.6825821583760758       -2.1976617948187669     
  0.88490700181941884       -7.8072308084433280        3.5481608105926856     
   5.1995520599636693       -7.2221999691533627        3.3248362669094491     
   7.7824185043719476       -4.2692241094205157        3.2293431170454001     
   2.4677383946384208       -7.0587893737925702        2.2184101254854718     
   4.7846666552794161       -5.9371216472816135        1.3312079424813836     
   1.7634795307099735       -6.9832370635158210       -4.6282876798169141     
  -1.4409725699066318       -7.7922093838188937       0.15636304678532267     
   7.6362491199071911       -5.6043836858052645      -0.72501286616118010     
   3.9729651507474175       -7.5111330789600723       -1.6546694829871147     
  0.71679400886432065       -5.5699913617892882        7.6623422342232468     
  -2.9370774830600030       -8.1137943143277216        1.1584157674743951     
   5.4796230450434491       -6.2139338241221704       -1.7605563875625923     
   1.9645827456170588       -8.5105199639695481       -3.7364734121256680     
   1.4823925797902886       -6.0239744086409983       -4.7217974260648052     
   7.9357227632990179       -3.5124464842422420        3.8647891173385562     
   9.3537719896565008      -0.20814501486682735       -1.1397880083116583     
 -0.18768143442176419       -8.8184211372325390        3.5286349577751439     
   3.4016963516542060       -8.5251625947333149        2.4495123883897683     
   1.1730375993570821       -9.1796425082509376       -2.1468097514651499     
   7.1261007417166535       -4.3131693610765627       -4.5485879393445057     
   2.7764305974344539       -8.5237411085619978       -3.1439309842586396     
   9.1374265884865924       -1.8754281881499575      -0.67990500822156108     
   2.6633792158797434       -6.2328287919269787       0.32304464709680036     
   8.7401024240384704      -0.98295715093817804      -0.46019334218289948     
   2.0705397467101418       -9.1118642452239662       -1.7109235572603412     
   5.8904544244889259       -5.4688392252845164       -3.0150633196020524     
  -2.1626990681155145       -8.3480182827729337       0.57059345330846900     
   7.6039312846337799       -3.9289843714502939      -0.35114804963639396     
   5.5108599875837028       -3.5100835702476219       -5.1397374563119236     
   1.7231697795378380       -8.2468710004695307        1.1555660276713853     
   6.9299689769258679       -2.6451857065905888       -5.8808826861009198     
   1.0754540366490322       -9.4186712567084356      -0.61657224049453663     
   1.1222628315604728       -6.9915089072600729      -0.48689367929778310     
 -0.35907079277773718       -8.4588697248661919       -2.9728249399648337     
   3.5999973555081586       -6.0725414056808544       -4.9007460859633847     
   7.1801459942523795       -2.6367633089129345       -1.8183306165857482     
   7.4562649976949578       -5.6300011672799002       -1.7103782740984148     
   2.7936842963248006E-002  -6.6510530975586493       0.92414122962385181     
   4.1999606489511523       -5.8491625141753687       -1.1259542735691614     
   8.4072135881824988       -4.3349478590818418       0.77745518024254257     
   7.3509798042981060       -3.4944050717781767        4.8942498826232654     
   9.3164267908116205       -1.1917683833997965       -1.3887851698417142     
  -1.4235947097240467       -6.4914216330264738       0.77920470396957386     
[...]
POINT_DATA  500
SCALARS radius float
LOOKUP_TABLE default
  0.50000000000000000     
  0.50000000000000000     
  0.50000000000000000     
  0.50000000000000000     
  0.50000000000000000     
  0.50000000000000000     
  0.50000000000000000     
  0.50000000000000000     
  0.50000000000000000     
  0.50000000000000000     
  0.50000000000000000     
  0.50000000000000000     
  0.50000000000000000     
  0.50000000000000000     
  0.50000000000000000     
  0.50000000000000000     
  0.50000000000000000     
  0.50000000000000000     
  0.50000000000000000     
  0.50000000000000000     
  0.50000000000000000     
  0.50000000000000000     
  0.50000000000000000     
  0.50000000000000000     
  0.50000000000000000     
  0.50000000000000000     
  0.50000000000000000     
  0.50000000000000000     
  0.50000000000000000     
  0.50000000000000000     
  0.50000000000000000     
  0.50000000000000000     
  0.50000000000000000     
  0.50000000000000000     
  0.50000000000000000     
  0.50000000000000000     
  0.50000000000000000     
  0.50000000000000000     
  0.50000000000000000     
  0.50000000000000000     
  0.50000000000000000     
  0.50000000000000000     
  0.50000000000000000     
  0.50000000000000000     
  0.50000000000000000     
  0.50000000000000000     
  0.50000000000000000     
  0.50000000000000000     
  0.50000000000000000     
  0.50000000000000000     
  0.50000000000000000     
  0.50000000000000000     
  0.50000000000000000     
  0.50000000000000000     
  0.50000000000000000     
  0.50000000000000000     
  0.50000000000000000     
  0.50000000000000000     
  0.50000000000000000     
  0.50000000000000000     
  0.50000000000000000     
  0.50000000000000000     
  0.50000000000000000     
  0.50000000000000000     
  0.50000000000000000     
  0.50000000000000000     
  0.50000000000000000     
  0.50000000000000000     
  0.50000000000000000     
  0.50000000000000000     
  0.50000000000000000     
  0.50000000000000000     
  0.50000000000000000     
  0.50000000000000000     
  0.50000000000000000     
  0.50000000000000000     
  0.50000000000000000     
  0.50000000000000000     
  0.50000000000000000     
  0.50000000000000000     
  0.50000000000000000     
  0.50000000000000000     
  0.50000000000000000     
  0.50000000000000000     
  0.50000000000000000     
  0.50000000000000000     
  0.50000000000000000     
  0.50000000000000000     
  0.50000000000000000     
  0.50000000000000000     
  0.50000000000000000     
  0.50000000000000000     
  0.50000000000000000     
  0.50000000000000000     
  0.50000000000000000     
  0.50000000000000000     
  0.50000000000000000     
  0.50000000000000000     
  0.50000000000000000     
  0.50000000000000000     
  0.50000000000000000     
  0.50000000000000000     
  0.50000000000000000     
  0.50000000000000000     
  0.50000000000000000     
  0.50000000000000000     
  0.50000000000000000     
  0.50000000000000000     
  0.50000000000000000     
  0.50000000000000000     
  0.50000000000000000     
  0.50000000000000000     
  0.50000000000000000     
  0.50000000000000000     
  0.50000000000000000     
  0.50000000000000000     
  0.50000000000000000     
  0.50000000000000000     
  0.50000000000000000     
  0.50000000000000000     
  0.50000000000000000     
  0.50000000000000000     
  0.50000000000000000     
  0.50000000000000000     
  0.50000000000000000     
  0.50000000000000000     
  0.50000000000000000     
  0.50000000000000000     
  0.50000000000000000     
  0.50000000000000000     
  0.50000000000000000     
  0.50000000000000000     
  0.50000000000000000     
  0.50000000000000000     
  0.50000000000000000     
  0.50000000000000000     
  0.50000000000000000     
  0.50000000000000000     
  0.50000000000000000     
  0.50000000000000000     
  0.50000000000000000     
  0.50000000000000000     
  0.50000000000000000     
  0.50000000000000000     
  0.50000000000000000     
  0.50000000000000000     
  0.50000000000000000     
  0.50000000000000000     
  0.50000000000000000     
  0.50000000000000000     
  0.50000000000000000     
  0.50000000000000000     
  0.50000000000000000     
  0.50000000000000000     
  0.50000000000000000     
  0.50000000000000000     
  0.50000000000000000     
  0.50000000000000000     
  0.50000000000000000     
  0.50000000000000000     
  0.50000000000000000     
  0.50000000000000000     
  0.50000000000000000     
  0.50000000000000000     
  0.50000000000000000     
  0.50000000000000000     
  0.50000000000000000     
  0.50000000000000000     
  0.50000000000000000     
  0.50000000000000000     
  0.50000000000000000     
  0.50000000000000000     
  0.50000000000000000     
  0.50000000000000000     
  0.50000000000000000     
  0.50000000000000000     
  0.50000000000000000     
  0.50000000000000000     
  0.50000000000000000     
  0.50000000000000000     
  0.50000000000000000     
  0.50000000000000000     
  0.50000000000000000     
  0.50000000000000000     
  0.50000000000000000     
  0.50000000000000000     
  0.50000000000000000     
  0.50000000000000000     
  0.50000000000000000     
  0.50000000000000000     
  0.50000000000000000     
  0.50000000000000000     
  0.50000000000000000     
  0.50000000000000000     
  0.50000000000000000     
  0.50000000000000000     
  0.50000000000000000     
  0.50000000000000000     
  0.50000000000000000     
  0.50000000000000000     
  0.50000000000000000     
  0.50000000000000000     
  0.50000000000000000     
  0.50000000000000000     
  0.50000000000000000     
  0.50000000000000000     
  0.50000000000000000     
  0.50000000000000000     
  0.50000000000000000     
  0.50000000000000000     
  0.50000000000000000     
  0.50000000000000000     
  0.50000000000000000     
  0.50000000000000000     
  0.50000000000000000     
  0.50000000000000000     
  0.50000000000000000     
  0.50000000000000000     
  0.50000000000000000     
  0.50000000000000000     
  0.50000000000000000     
  0.50000000000000000     
  0.50000000000000000     
  0.50000000000000000     
  0.50000000000000000     
  0.50000000000000000     
  0.50000000000000000     
  0.50000000000000000     
  0.50000000000000000     
  0.50000000000000000     
  0.50000000000000000     
  0.50000000000000000     
  0.50000000000000000     
  0.50000000000000000     
  0.50000000000000000     
  0.50000000000000000     
  0.50000000000000000     
  0.50000000000000000     
  0.50000000000000000     
  0.50000000000000000     
  0.50000000000000000     
  0.50000000000000000     
  0.50000000000000000     
  0.50000000000000000     
  0.50000000000000000     
  0.50000000000000000     
  0.50000000000000000     
  0.50000000000000000     
  0.50000000000000000     
  0.50000000000000000     
  0.50000000000000000     
  0.50000000000000000     
  0.50000000000000000     
  0.50000000000000000     
  0.50000000000000000     
  0.50000000000000000     
  0.50000000000000000     
  0.50000000000000000     
  0.50000000000000000     
  0.50000000000000000     
  0.50000000000000000     
  0.50000000000000000     
  0.50000000000000000     
  0.50000000000000000     
  0.50000000000000000     
  0.50000000000000000     
  0.50000000000000000     
  0.50000000000000000     
  0.50000000000000000     
  0.50000000000000000     
  0.50000000000000000     
  0.50000000000000000     
  0.50000000000000000     
  0.50000000000000000     
  0.50000000000000000     
  0.50000000000000000     
  0.50000000000000000     
  0.50000000000000000     
  0.50000000000000000     
  0.50000000000000000     
  0.50000000000000000     
  0.50000000000000000     
  0.50000000000000000     
  0.50000000000000000     
  0.50000000000000000     
  0.50000000000000000     
  0.50000000000000000     
  0.50000000000000000     
  0.50000000000000000     
  0.50000000000000000     
  0.50000000000000000     
  0.50000000000000000     
  0.50000000000000000     
  0.50000000000000000     
  0.50000000000000000     
  0.50000000000000000     
  0.50000000000000000     
  0.50000000000000000     
  0.50000000000000000     
  0.50000000000000000     
  0.50000000000000000     
  0.50000000000000000     
  0.50000000000000000     
  0.50000000000000000     
  0.50000000000000000     
  0.50000000000000000     
  0.50000000000000000     
  0.50000000000000000     
  0.50000000000000000     
  0.50000000000000000     
  0.50000000000000000     
  0.50000000000000000     
  0.50000000000000000     
  0.50000000000000000     
  0.50000000000000000     
  0.50000000000000000     
  0.50000000000000000     
  0.50000000000000000     
  0.50000000000000000     
  0.50000000000000000     
  0.50000000000000000     
  0.50000000000000000     
  0.50000000000000000     
  0.50000000000000000     
  0.50000000000000000     
  0.50000000000000000     
  0.50000000000000000     
  0.50000000000000000     
  0.50000000000000000     
  0.50000000000000000     
  0.50000000000000000     
  0.50000000000000000     
  0.50000000000000000     
  0.50000000000000000     
  0.50000000000000000     
  0.50000000000000000     
  0.50000000000000000     
  0.50000000000000000     
  0.50000000000000000     
  0.50000000000000000     
  0.50000000000000000     
  0.50000000000000000     
  0.50000000000000000     
  0.50000000000000000     
  0.50000000000000000     
  0.50000000000000000     
  0.50000000000000000     
  0.50000000000000000     
  0.50000000000000000     
  0.50000000000000000     
  0.50000000000000000     
  0.50000000000000000     
  0.50000000000000000     
  0.50000000000000000     
  0.50000000000000000     
  0.50000000000000000     
  0.50000000000000000     
  0.50000000000000000     
  0.50000000000000000     
  0.50000000000000000     
  0.50000000000000000     
  0.50000000000000000     
  0.50000000000000000     
  0.50000000000000000     
  0.50000000000000000     
  0.50000000000000000     
  0.50000000000000000     
  0.50000000000000000     
  0.50000000000000000     
  0.50000000000000000     
  0.50000000000000000     
  0.50000000000000000     
  0.50000000000000000     
  0.50000000000000000     
  0.50000000000000000     
  0.50000000000000000     
  0.50000000000000000     
  0.50000000000000000     
  0.50000000000000000     
  0.50000000000000000     
  0.50000000000000000     
  0.50000000000000000     
  0.50000000000000000     
  0.50000000000000000     
  0.50000000000000000     
  0.50000000000000000     
  0.50000000000000000     
  0.50000000000000000     
  0.50000000000000000     
  0.50000000000000000     
  0.50000000000000000     
  0.50000000000000000     
  0.50000000000000000     
  0.50000000000000000     
  0.50000000000000000     
  0.50000000000000000     
  0.50000000000000000     
  0.50000000000000000     
  0.50000000000000000     
  0.50000000000000000     
  0.50000000000000000     
  0.50000000000000000     
  0.50000000000000000     
  0.50000000000000000     
  0.50000000000000000     
  0.50000000000000000     
  0.50000000000000000     
  0.50000000000000000     
  0.50000000000000000     
  0.50000000000000000     
  0.50000000000000000     
  0.50000000000000000     
  0.50000000000000000     
  0.50000000000000000     
  0.50000000000000000     
  0.50000000000000000     
  0.50000000000000000     
  0.50000000000000000     
  0.50000000000000000     
  0.50000000000000000     
  0.50000000000000000     
  0.50000000000000000     
  0.50000000000000000     
  0.50000000000000000     
  0.50000000000000000     
  0.50000000000000000     
  0.50000000000000000     
  0.50000000000000000     
  0.50000000000000000     
  0.50000000000000000     
  0.50000000000000000     
  0.50000000000000000     
  0.50000000000000000     
  0.50000000000000000     
  0.50000000000000000     
  0.50000000000000000     
  0.50000000000000000     
  0.50000000000000000     
  0.50000000000000000     
  0.50000000000000000     
  0.50000000000000000     
  0.50000000000000000     
  0.50000000000000000     
  0.50000000000000000     
  0.50000000000000000     
  0.50000000000000000     
  0.50000000000000000     
  0.50000000000000000     
  0.50000000000000000     
  0.50000000000000000     
  0.50000000000000000     
  0.50000000000000000     
  0.50000000000000000     
  0.50000000000000000     
  0.50000000000000000     
  0.50000000000000000     
  0.50000000000000000     
  0.50000000000000000     
  0.50000000000000000     
  0.50000000000000000     
  0.50000000000000000     
  0.50000000000000000     
  0.50000000000000000     
  0.50000000000000000     
  0.50000000000000000     
  0.50000000000000000     
  0.50000000000000000     
  0.50000000000000000     
  0.50000000000000000     
  0.50000000000000000     
  0.50000000000000000     
  0.50000000000000000     
  0.50000000000000000     
  0.50000000000000000     
  0.50000000000000000     
  0.50000000000000000     
  0.50000000000000000     
  0.50000000000000000     
  0.50000000000000000     
  0.50000000000000000     
  0.50000000000000000     
  0.50000000000000000     
  0.50000000000000000     
  0.50000000000000000     
  0.50000000000000000     
  0.50000000000000000     
  0.50000000000000000     
  0.50000000000000000     
  0.50000000000000000     
  0.50000000000000000     
  0.50000000000000000     
  0.50000000000000000     
  0.50000000000000000     
  0.50000000000000000     
  0.50000000000000000     
  0.50000000000000000     
  0.50000000000000000     
  0.50000000000000000     
  0.50000000000000000     
  0.50000000000000000     
