# vtk DataFile Version 5.1
Data.vtk
ASCII
DATASET UNSTRUCTURED_GRID
 
POINTS 500 float
   2.6460217443705494       -7.1208314366377605        5.7043487056582922     
  -2.6960465909011824E-002  -6.9840433735170153       -3.5034969951851833     
   2.3832042800865638       -5.8096548587684902       -2.3389504665526952     
   7.4959749094890862       -3.3667254330334231       -2.2705646364904482     
   8.8474702561918583       -1.3533199116176162       -3.0284154380659229     
  -2.9807623916873589       -8.8571413465066762       -1.5878306216910765     
  0.86454801226227962       -7.7718688852162554        5.3947750341160949     
 -0.60419225292246304       -8.4861710829931134       0.86616159701391282     
   5.2517552308857978       -5.1854015488515905       -2.3159612237559144     
 -0.94993436960002797       -8.8624423319470598       -3.2869604599818780     
 -0.57805548714699562       -8.5027904802136813       -1.6634831727888071     
  -1.9698022671923152       -9.2259156460320533       -1.1194323579777239     
   4.3001544489888461       -5.6012090654474838        2.7906864136957732     
  -1.7378766620262653       -8.0584071357954148       -3.0664923282350736     
   4.3162840337094872       -5.5330990629535384        5.1526439984371004     
   1.5892702843350586       -9.3657759385216259       -8.0810294528209467E-002
   1.5917133060500246       -6.3070231437874371       -1.9727850697141156     
   8.6307686477660805       -3.9186075224428061       0.54743549607013930     
 -0.48014844723947797       -7.0901388957906333        3.6235168121198829     
   4.0271289512227346       -6.5545502031346929       -3.6263577758311079     
   3.1909515053743180       -8.9256549671018153      -0.51349889852355635     
   6.9361174287140573E-002  -6.8924531399308187       -1.1390181100734031     
   1.9137255793921584       -8.0736595287567301        2.4455610383161481     
   5.8662358085914885       -3.1341622415689612        2.3679128122377375     
   4.1333807570227536       -7.6475673413128691      -0.95417907993498841     
  0.83637607198780184       -5.8755091145412077      -0.54832031531059344     
   1.2331171307333111       -9.2884418914439308        1.5667162823689991     
   8.4038614781507022      -0.34962304606585254       0.42740628444528733     
   1.2924733309591778       -7.2488416569223819       -4.4014217080868479     
   3.7244302926651169       -8.7244603346569889       0.42376297426732168     
   1.3403815393322456       -8.7854994428567341       0.69464603881122711     
   2.1749812529887200       -8.6762011257154068        3.2002763016899074     
   6.2334232507992446       -5.1797948444241229       -4.9542773303945031     
  0.57027288809713261       -6.4297681970614988       -1.8702802308088216     
  -1.4138802916992126       -8.4412359195646296       -4.1219420685416610     
 -0.75309605449045625       -7.7218961267295656       -3.8999366345306044     
   3.8672983656705870       -6.7466481132216964      -0.60720960310648575     
   6.1674357231653039       -5.5127412371533575        4.6710243895955630     
   4.4105147080753522       -7.1671558495344962        1.7198293422301065     
   1.4657822182031517       -6.2248946384601025        2.3426533537699394     
   2.3225624365797963       -8.3001529906359401       0.71876738482518931     
   1.3492979314648237       -7.2091967114389002        2.4781619690089141     
  -1.2177974616204914       -6.7466146881901974        2.0230971398964077     
  -7.5840802070572491E-002  -6.6136403964739339        6.6836758448749007     
  0.34025556046930000       -6.4996559760267028       -6.9200173936525191     
   1.2839789137303790       -7.2593483505012610       -1.9184384686544669     
   5.5816174886222596       -3.9814932784155932        5.2673167611190408     
  -1.4976682605307956       -7.6213215846024003       0.36194344110754695     
   2.9581945771823102       -7.1658972409574808       -3.6240772671358794     
   1.2931238050608100       -6.1794693962212639       -6.9072264801545424     
   6.4734787318879032       -5.1229730497909758       -2.4298470970073889     
   2.1778026681789351       -6.7928817849412475       -4.1898063192276203     
  -2.8441081640891896       -8.2581825136692864      -0.79974295988592936     
 -0.94491622229152239       -9.1640587451609861       -2.3188710067647489     
   9.2174648573674229       -1.6530584852249997        1.3912934322033184     
   5.6884110621411335       -4.4338341597315631       -2.8123366342575378     
   7.6459959085786879       -5.0816975186626738        2.4395907873418743     
  -1.2139365602694203       -9.4157058251919867      -0.34572223710887923     
   3.6021101760670153       -5.7769596146344693       -4.5236544389026632     
   3.8553231516246771       -6.7236273170233698        3.5448428554782976     
   9.3247045624988072      -0.84852926737462930       -2.5691150042581021E-002
  0.96092259183483342       -9.0003460445371335       -2.7993771825903266     
   6.4235299659725564       -3.6535484647272782        5.9692156960042082     
   6.1887697695589479       -5.5428353201781606       -1.5603383472109613     
   1.7746531578536204       -7.0696559084611899       -6.0926389821764841     
   3.1827412721147104       -6.6383911579764554       -5.9599585184343109     
   2.2337084247996390       -8.2568267148897920       -1.1657260708376893     
   6.2597782079105366       -7.1297524178197520       0.48137368266492825     
   4.0212074005546885       -4.6251455225862852       -1.0352196305290422     
   3.4577091191917870       -5.7462693946442842        3.7369445778921140     
   1.8296868265225306       -6.8182899162134118       -5.1265874352621745     
   2.3237916892370731       -5.8508313337361555        5.7222872546181982     
   2.5332354982319596       -9.1530433609435828       0.21531067315495900     
   5.2449269048254861       -6.6156035487475826        1.7385125483067994     
   3.8681029655601060       -8.3567958808827711        2.3328045362729402     
  0.22944964643342805       -9.4797872023655891      -0.56236873841864965     
   3.4809950233552032       -5.7664680842919491        6.6865690825819692     
   7.1723930515145407       -4.6842095066929472      -0.20511153947836747     
  -2.6079812880528448       -8.2071368287109117       0.37021411041196539     
  0.83789777388016606       -6.8713261046633001       -2.7265335037077625     
   2.3032758119430650       -7.5386390454716219       -1.8657378727716001     
   7.2225741621682769       -2.6287090052746773       -1.0452267010457534     
   1.5135981513690422       -8.3201087873256689        1.5626402954477716     
   4.6899362843464472       -4.6290759548541338        1.5393800325125047     
   1.2169324078379038       -8.9935045122419481        2.8082328783429245     
   4.9457402253343741       -5.3475229481886695        4.3067989030409564     
  0.39014743805032115       -8.8669787622531686        2.2551312424649432     
  -1.2859574993297871       -7.5683039634126059        1.4568909575387989     
  -5.4027474637202894E-002  -7.2956886482041678        2.5376883043680345     
   3.2423598349771559       -4.8897100452671518       -4.2252610467710134     
   2.6389767927638981       -7.6387867095619812       -2.8023006516248086     
  -2.0707640794980247       -7.4341496715576234       -3.9046308940915662     
   7.4347976126397022       -2.2952507537034079       0.99019247087359585     
   5.8128588791526763       -5.4185787394456719       -3.1445257592802105     
 -0.85162744362329401       -8.1736541802746991       -2.5678294467651255     
   3.8671805436605302       -5.9690120940624274       -6.2974635044272711     
   6.6630659802708738       -5.2091681106919143        1.7372255876422396     
   4.4859003754813065       -4.5900464240869683        4.8609411073354112     
  0.75258755504601071       -8.3043508069489516        4.5444477293160546     
  -1.2923478839851621       -7.5569763921287425        3.1015521236111607     
   6.9590509693379490       -6.1871735202188152       -1.4784648014990993     
   7.6789125650349739       -3.5653657186052987       -4.1311822441819377     
   5.0113216535669212       -7.6515213788022214       -2.5581389056289385     
   2.2710284062625608       -6.3391859352998292       -3.3027434680857422     
   5.5656448621765753       -3.5376217020833334        4.1473757266850253     
   3.2749859921696070       -5.8895357872974348        5.1486104432667403     
  0.78808545953840836       -7.6972740391775902       -3.6618332947372889     
   8.2215048693732271       -4.5054421222065582       -1.3561954948009758     
  -2.2843271843962776       -9.1266547349612459        1.3179496405940601     
   5.1060659073071442       -4.6733664623377482       -4.9123422516034738     
  0.49128243274701877       -7.7246788129556236       -1.5216644687497924     
   7.5764754929465212       -5.7062294784596821      -0.53562130270887987     
   3.8210429150571650       -4.0299749462703121       -7.4395661978997776     
   1.9890462307859873       -7.4531182736544990      -0.62249871787999655     
 -0.41734244501479734       -7.0177673271981700      -0.18515859709404200     
   1.2476561554013095       -8.3885937844825857       -1.0639909905585176     
   1.1833139066056308       -5.8179288404405165       -3.9691372211315477     
  0.55493515682654682       -6.5626301155985329       -4.2035587347497652     
   3.2976895022503023       -7.6903046416223519       -2.0183915179317404     
   8.4942963412956214       -2.7388688848827680        3.2535324156280727     
   2.6146383587044255       -7.9141496627220222       -4.5585058804043488     
   9.4165141213335541      -0.68460736240607201       -1.0123244099365105     
   5.8259387616695681       -7.3702245096566630        1.3910655538894388     
   4.6690970898926025       -4.4012729491588098        5.8269783365096135     
   1.8000254098480926       -5.8777699458203942      -0.89220969461890276     
[...]
POINT_DATA  500
SCALARS radius float
LOOKUP_TABLE default
  0.50000000000000000     
  0.50000000000000000     
  0.50000000000000000     
  0.50000000000000000     
  0.50000000000000000     
  0.50000000000000000     
  0.50000000000000000     
  0.50000000000000000     
  0.50000000000000000     
  0.50000000000000000     
  0.50000000000000000     
  0.50000000000000000     
  0.50000000000000000     
  0.50000000000000000     
  0.50000000000000000     
  0.50000000000000000     
  0.50000000000000000     
  0.50000000000000000     
  0.50000000000000000     
  0.50000000000000000     
  0.50000000000000000     
  0.50000000000000000     
  0.50000000000000000     
  0.50000000000000000     
  0.50000000000000000     
  0.50000000000000000     
  0.50000000000000000     
  0.50000000000000000     
  0.50000000000000000     
  0.50000000000000000     
  0.50000000000000000     
  0.50000000000000000     
  0.50000000000000000     
  0.50000000000000000     
  0.50000000000000000     
  0.50000000000000000     
  0.50000000000000000     
  0.50000000000000000     
  0.50000000000000000     
  0.50000000000000000     
  0.50000000000000000     
  0.50000000000000000     
  0.50000000000000000     
  0.50000000000000000     
  0.50000000000000000     
  0.50000000000000000     
  0.50000000000000000     
  0.50000000000000000     
  0.50000000000000000     
  0.50000000000000000     
  0.50000000000000000     
  0.50000000000000000     
  0.50000000000000000     
  0.50000000000000000     
  0.50000000000000000     
  0.50000000000000000     
  0.50000000000000000     
  0.50000000000000000     
  0.50000000000000000     
  0.50000000000000000     
  0.50000000000000000     
  0.50000000000000000     
  0.50000000000000000     
  0.50000000000000000     
  0.50000000000000000     
  0.50000000000000000     
  0.50000000000000000     
  0.50000000000000000     
  0.50000000000000000     
  0.50000000000000000     
  0.50000000000000000     
  0.50000000000000000     
  0.50000000000000000     
  0.50000000000000000     
  0.50000000000000000     
  0.50000000000000000     
  0.50000000000000000     
  0.50000000000000000     
  0.50000000000000000     
  0.50000000000000000     
  0.50000000000000000     
  0.50000000000000000     
  0.50000000000000000     
  0.50000000000000000     
  0.50000000000000000     
  0.50000000000000000     
  0.50000000000000000     
  0.50000000000000000     
  0.50000000000000000     
  0.50000000000000000     
  0.50000000000000000     
  0.50000000000000000     
  0.50000000000000000     
  0.50000000000000000     
  0.50000000000000000     
  0.50000000000000000     
  0.50000000000000000     
  0.50000000000000000     
  0.50000000000000000     
  0.50000000000000000     
  0.50000000000000000     
  0.50000000000000000     
  0.50000000000000000     
  0.50000000000000000     
  0.50000000000000000     
  0.50000000000000000     
  0.50000000000000000     
  0.50000000000000000     
  0.50000000000000000     
  0.50000000000000000     
  0.50000000000000000     
  0.50000000000000000     
  0.50000000000000000     
  0.50000000000000000     
  0.50000000000000000     
  0.50000000000000000     
  0.50000000000000000     
  0.50000000000000000     
  0.50000000000000000     
  0.50000000000000000     
  0.50000000000000000     
  0.50000000000000000     
  0.50000000000000000     
  0.50000000000000000     
  0.50000000000000000     
  0.50000000000000000     
  0.50000000000000000     
  0.50000000000000000     
  0.50000000000000000     
  0.50000000000000000     
  0.50000000000000000     
  0.50000000000000000     
  0.50000000000000000     
  0.50000000000000000     
  0.50000000000000000     
  0.50000000000000000     
  0.50000000000000000     
  0.50000000000000000     
  0.50000000000000000     
  0.50000000000000000     
  0.50000000000000000     
  0.50000000000000000     
  0.50000000000000000     
  0.50000000000000000     
  0.50000000000000000     
  0.50000000000000000     
  0.50000000000000000     
  0.50000000000000000     
  0.50000000000000000     
  0.50000000000000000     
  0.50000000000000000     
  0.50000000000000000     
  0.50000000000000000     
  0.50000000000000000     
  0.50000000000000000     
  0.50000000000000000     
  0.50000000000000000     
  0.50000000000000000     
  0.50000000000000000     
  0.50000000000000000     
  0.50000000000000000     
  0.50000000000000000     
  0.50000000000000000     
  0.50000000000000000     
  0.50000000000000000     
  0.50000000000000000     
  0.50000000000000000     
  0.50000000000000000     
  0.50000000000000000     
  0.50000000000000000     
  0.50000000000000000     
  0.50000000000000000     
  0.50000000000000000     
  0.50000000000000000     
  0.50000000000000000     
  0.50000000000000000     
  0.50000000000000000     
  0.50000000000000000     
  0.50000000000000000     
  0.50000000000000000     
  0.50000000000000000     
  0.50000000000000000     
  0.50000000000000000     
  0.50000000000000000     
  0.50000000000000000     
  0.50000000000000000     
  0.50000000000000000     
  0.50000000000000000     
  0.50000000000000000     
  0.50000000000000000     
  0.50000000000000000     
  0.50000000000000000     
  0.50000000000000000     
  0.50000000000000000     
  0.50000000000000000     
  0.50000000000000000     
  0.50000000000000000     
  0.50000000000000000     
  0.50000000000000000     
  0.50000000000000000     
  0.50000000000000000     
  0.50000000000000000     
  0.50000000000000000     
  0.50000000000000000     
  0.50000000000000000     
  0.50000000000000000     
  0.50000000000000000     
  0.50000000000000000     
  0.50000000000000000     
  0.50000000000000000     
  0.50000000000000000     
  0.50000000000000000     
  0.50000000000000000     
  0.50000000000000000     
  0.50000000000000000     
  0.50000000000000000     
  0.50000000000000000     
  0.50000000000000000     
  0.50000000000000000     
  0.50000000000000000     
  0.50000000000000000     
  0.50000000000000000     
  0.50000000000000000     
  0.50000000000000000     
  0.50000000000000000     
  0.50000000000000000     
  0.50000000000000000     
  0.50000000000000000     
  0.50000000000000000     
  0.50000000000000000     
  0.50000000000000000     
  0.50000000000000000     
  0.50000000000000000     
  0.50000000000000000     
  0.50000000000000000     
  0.50000000000000000     
  0.50000000000000000     
  0.50000000000000000     
  0.50000000000000000     
  0.50000000000000000     
  0.50000000000000000     
  0.50000000000000000     
  0.50000000000000000     
  0.50000000000000000     
  0.50000000000000000     
  0.50000000000000000     
  0.50000000000000000     
  0.50000000000000000     
  0.50000000000000000     
  0.50000000000000000     
  0.50000000000000000     
  0.50000000000000000     
  0.50000000000000000     
  0.50000000000000000     
  0.50000000000000000     
  0.50000000000000000     
  0.50000000000000000     
  0.50000000000000000     
  0.50000000000000000     
  0.50000000000000000     
  0.50000000000000000     
  0.50000000000000000     
  0.50000000000000000     
  0.50000000000000000     
  0.50000000000000000     
  0.50000000000000000     
  0.50000000000000000     
  0.50000000000000000     
  0.50000000000000000     
  0.50000000000000000     
  0.50000000000000000     
  0.50000000000000000     
  0.50000000000000000     
  0.50000000000000000     
  0.50000000000000000     
  0.50000000000000000     
  0.50000000000000000     
  0.50000000000000000     
  0.50000000000000000     
  0.50000000000000000     
  0.50000000000000000     
  0.50000000000000000     
  0.50000000000000000     
  0.50000000000000000     
  0.50000000000000000     
  0.50000000000000000     
  0.50000000000000000     
  0.50000000000000000     
  0.50000000000000000     
  0.50000000000000000     
  0.50000000000000000     
  0.50000000000000000     
  0.50000000000000000     
  0.50000000000000000     
  0.50000000000000000     
  0.50000000000000000     
  0.50000000000000000     
  0.50000000000000000     
  0.50000000000000000     
  0.50000000000000000     
  0.50000000000000000     
  0.50000000000000000     
  0.50000000000000000     
  0.50000000000000000     
  0.50000000000000000     
  0.50000000000000000     
  0.50000000000000000     
  0.50000000000000000     
  0.50000000000000000     
  0.50000000000000000     
  0.50000000000000000     
  0.50000000000000000     
  0.50000000000000000     
  0.50000000000000000     
  0.50000000000000000     
  0.50000000000000000     
  0.50000000000000000     
  0.50000000000000000     
  0.50000000000000000     
  0.50000000000000000     
  0.50000000000000000     
  0.50000000000000000     
  0.50000000000000000     
  0.50000000000000000     
  0.50000000000000000     
  0.50000000000000000     
  0.50000000000000000     
  0.50000000000000000     
  0.50000000000000000     
  0.50000000000000000     
  0.50000000000000000     
  0.50000000000000000     
  0.50000000000000000     
  0.50000000000000000     
  0.50000000000000000     
  0.50000000000000000     
  0.50000000000000000     
  0.50000000000000000     
  0.50000000000000000     
  0.50000000000000000     
  0.50000000000000000     
  0.50000000000000000     
  0.50000000000000000     
  0.50000000000000000     
  0.50000000000000000     
  0.50000000000000000     
  0.50000000000000000     
  0.50000000000000000     
  0.50000000000000000     
  0.50000000000000000     
  0.50000000000000000     
  0.50000000000000000     
  0.50000000000000000     
  0.50000000000000000     
  0.50000000000000000     
  0.50000000000000000     
  0.50000000000000000     
  0.50000000000000000     
  0.50000000000000000     
  0.50000000000000000     
  0.50000000000000000     
  0.50000000000000000     
  0.50000000000000000     
  0.50000000000000000     
  0.50000000000000000     
  0.50000000000000000     
  0.50000000000000000     
  0.50000000000000000     
  0.50000000000000000     
  0.50000000000000000     
  0.50000000000000000     
  0.50000000000000000     
  0.50000000000000000     
  0.50000000000000000     
  0.50000000000000000     
  0.50000000000000000     
  0.50000000000000000     
  0.50000000000000000     
  0.50000000000000000     
  0.50000000000000000     
  0.50000000000000000     
  0.50000000000000000     
  0.50000000000000000     
  0.50000000000000000     
  0.50000000000000000     
  0.50000000000000000     
  0.50000000000000000     
  0.50000000000000000     
  0.50000000000000000     
  0.50000000000000000     
  0.50000000000000000     
  0.50000000000000000     
  0.50000000000000000     
  0.50000000000000000     
  0.50000000000000000     
  0.50000000000000000     
  0.50000000000000000     
  0.50000000000000000     
  0.50000000000000000     
  0.50000000000000000     
  0.50000000000000000     
  0.50000000000000000     
  0.50000000000000000     
  0.50000000000000000     
  0.50000000000000000     
  0.50000000000000000     
  0.50000000000000000     
  0.50000000000000000     
  0.50000000000000000     
  0.50000000000000000     
  0.50000000000000000     
  0.50000000000000000     
  0.50000000000000000     
  0.50000000000000000     
  0.50000000000000000     
  0.50000000000000000     
  0.50000000000000000     
  0.50000000000000000     
  0.50000000000000000     
  0.50000000000000000     
  0.50000000000000000     
  0.50000000000000000     
  0.50000000000000000     
  0.50000000000000000     
  0.50000000000000000     
  0.50000000000000000     
  0.50000000000000000     
  0.50000000000000000     
  0.50000000000000000     
  0.50000000000000000     
  0.50000000000000000     
  0.50000000000000000     
  0.50000000000000000     
  0.50000000000000000     
  0.50000000000000000     
  0.50000000000000000     
  0.50000000000000000     
  0.50000000000000000     
  0.50000000000000000     
  0.50000000000000000     
  0.50000000000000000     
  0.50000000000000000     
  0.50000000000000000     
  0.50000000000000000     
  0.50000000000000000     
  0.50000000000000000     
  0.50000000000000000     
  0.50000000000000000     
  0.50000000000000000     
  0.50000000000000000     
  0.50000000000000000     
  0.50000000000000000     
  0.50000000000000000     
  0.50000000000000000     
  0.50000000000000000     
  0.50000000000000000     
  0.50000000000000000     
  0.50000000000000000     
  0.50000000000000000     
  0.50000000000000000     
  0.50000000000000000     
  0.50000000000000000     
  0.50000000000000000     
  0.50000000000000000     
  0.50000000000000000     
  0.50000000000000000     
  0.50000000000000000     
  0.50000000000000000     
  0.50000000000000000     
  0.50000000000000000     
  0.50000000000000000     
  0.50000000000000000     
  0.50000000000000000     
  0.50000000000000000     
  0.50000000000000000     
  0.50000000000000000     
  0.50000000000000000     
  0.50000000000000000     
  0.50000000000000000     
  0.50000000000000000     
  0.50000000000000000     
  0.50000000000000000     
  0.50000000000000000     
  0.50000000000000000     
  0.50000000000000000     
  0.50000000000000000     
  0.50000000000000000     
  0.50000000000000000     
  0.50000000000000000     
  0.50000000000000000     
  0.50000000000000000     
  0.50000000000000000     
  0.50000000000000000     
  0.50000000000000000     
  0.50000000000000000     
  0.50000000000000000     
  0.50000000000000000     
  0.50000000000000000     
  0.50000000000000000     
  0.50000000000000000     
