# vtk DataFile Version 5.1
Data.vtk
ASCII
DATASET UNSTRUCTURED_GRID
 
POINTS 500 float
 -0.11388753008316263       -6.5311305125423766        2.0958054838893188     
   5.1315879399778987       -7.9118500607766746       -1.1371398545350655     
   7.5206652107138154       -5.6597491298246814        1.2897609915362545     
   2.4683410614896220       -6.8262971571985274       -2.6132876588074812     
   2.1823232940949033       -5.5415112382897327      -0.68819226698461133     
   1.8388516535339712       -6.1670482297205895       -2.1829286170537574     
  -1.4164720053693951       -8.4559834264622609        2.9602082177675966     
   4.3480265023840268       -6.1500244263630144        1.0891428627067412     
   5.4700856657715944       -6.4716528505113402       -1.1023948405661492     
  0.53226899492429602       -8.9492002699113335       -3.1429455394759076     
   2.4204274887684938       -5.8768352988238712       -4.3464398749102831     
   4.0720142546596234       -7.9797053988976030       -3.1611836916732363     
   2.7051005510860047       -7.9039822241385727        1.8691684959553001     
  0.24681869970424708       -7.6157221802332886       0.74229583532737331     
   2.8107616010586858       -6.2327947550736837       -3.3416649104648046     
 -0.43008523524020720       -6.7587181663216516       -1.4220607149680695     
   2.7755949156175275       -5.1330789409104787       -4.9608320353405935     
  -1.4462411559294841       -7.5985880920136326        2.4460386933060683     
   4.3935645602548954       -6.9348180983537953        2.3152989306879892     
 -0.25752680363981262       -7.6766715624514994       -4.0499319793319701     
   5.1720003756736039       -5.6434941920296859      -0.61869437638887259     
  -2.3641369314480412       -8.2733288327050634       -4.0261197273556855     
  -2.8631339169329615       -8.9214213879945561        1.5220031756310657     
   5.7582826899203896       -5.6975155125380663        2.8659298425057544     
  -1.5295249769092965       -6.8811750118488746       -1.8772302954636282     
   1.3124188607722582       -9.0708113900244918       -2.4996321065742513     
   4.4626391720320528       -5.5849715435355751        3.1733005019369362     
   5.5736340861390401       -7.4502152502143986       -1.9061997870269063     
   3.6041944770693606       -5.5267601474485080       -6.7899086931797061     
   4.0905233276159505       -4.4812660945762293        5.7936236684718718     
   7.9777443374004147       -4.8472798229819025       -1.7631453280742291     
   2.8651420421451461       -6.3970179985834017        4.8385306881331855     
   4.1058643523729730       -4.6806875779189143       -7.1049418698616273     
   1.2723070371824445       -7.6734109875301293       0.81469881588690340     
  -2.8226347809140160       -8.1260254706222632       -2.5338485040938377     
   2.6777925347900280       -5.8642967414219100       -6.9745916668824224     
   6.9085044626338368       -5.6031109703575437       -3.3341097177973600     
   1.2811379985794120       -7.2378700604726776        5.9253771378534310     
   1.0114618903076491       -8.4674051336957294       0.24807829884103849     
   3.9741290041341992       -5.3392154501750380        5.2865833141556831     
   4.7219856411092183       -8.2040691139933593       0.76991633346834254     
   1.7286169169715535       -6.6670865498766858        3.8588484128989728     
   8.3828023943281256       -1.5536950646053258        4.1674631704932477     
   3.5963337485953439       -8.0357302177956189        3.5382802286252786     
   6.3652976848280263       -3.6609166181898702       -6.0126065041262198     
   7.1759988073829346       -2.1279053042464531        5.8177102637160258     
   9.1550638105601969       -1.4800306910968843       0.74951779882726599     
   3.7642318468525024       -4.8589976907408863       -4.9440616124368173     
   4.6138087826960428       -6.6210519381565547       -2.9132815125952018     
   8.5178083289832749       -4.0556047458065159        1.1048072529186728     
  -1.3517675093522614       -7.7516390522694465      -0.48336508891591212     
   6.8544173114019484       -3.9018577749302934       -5.1289123055541648     
   5.7117472129836946       -4.9308953592781579      -0.16552861037216973     
   3.4188977691114815       -8.6127893194481331        2.0931958846855254     
   4.4524632945634153       -7.5402225475169447        3.6841543733943380     
   3.7515020204979654       -6.2329797423765818       -6.0853155829809493     
   1.4964353656560090       -9.1385625147321701        2.0888530626849109     
   9.1982552405618581       -1.6954308886015779       -1.5827466246015280     
  -1.1262497294721725       -8.4269035772555299       -4.2379046394979101     
   4.4414020776114249       -6.4639994512073260        3.6720492629143386     
  0.61146719480709966       -9.4761943510746871      -0.27957816264125546     
   2.4442237831781384       -8.2923637211771251       -3.9331755503923840     
 -0.93470610249381469       -8.6501932791760119        3.8146684166395231     
   3.4114119700069487       -5.8799903236798068       -1.0227591676227823     
  -2.1934559079107903       -7.8163716940043519       -4.9099909686479553     
   5.5636083760890109       -5.2125954664781702       -5.6679085176716528     
  0.69938420456553385       -6.2346571788863105       -3.1105593382478793     
   8.4102167539895607       -2.3313012264747068        3.5271000571956783     
  -2.5897405325610490       -6.8168048669009575       0.89182206411810527     
   7.3599727507985069       -3.9863625935547979        2.1394111668261853     
   5.5695399784228634       -6.6909831425295403       -3.7845008511590845     
   3.1823725944733852       -5.1313256427218361        7.2868146982705353     
   5.2907373249085952       -7.0038574614837481        3.5876465216113003     
   5.6093931667426160       -6.3367384297362452       0.85375710898240054     
   2.4750402853733262       -8.9548848744308298        1.9829836777249217     
   4.5943182073192741       -5.7258590321301099       -2.4679625817063182     
   1.6438031976694543       -7.7972258250410302        5.1460371262824305     
   3.4688863592321759       -6.8706570494075505      -0.88962152895190727     
   3.8141189446659109       -5.7377995090565337       -3.1123275454501629     
  0.48427821954564171       -5.8545080520511981       0.78727011013492809     
  -2.4387693316708523       -7.1505242303609862      -0.12273077278561753     
   3.3723612200894246       -6.4083502459000963       -2.5161491379785614     
  0.37554505586457898       -7.3339684598270596        3.6741214080612501     
  -2.0697846977980028       -6.9457205910158022        5.1017204047009450     
 -0.78671711394220856       -9.1529873827594752        2.4231035198471611     
   2.7015714668454383       -6.9030604101458763        1.8524603289702777     
   5.3214139760653643       -5.3964425860596723       0.66824519519536218     
   8.8751511829177687       -2.1710386709102796       -2.4381869619923711     
  -3.8385641754339304E-002  -7.4432497408395042      -0.20043238581033679     
  -2.1623613840375864       -9.1294602259831201       -1.4920679091333438     
  0.93877542818933934       -8.0263875554442485       -2.5546766919655237     
   5.8063306144459732       -5.9412088031716959        4.6090147710411982     
  -2.8078283462132543       -8.1676774431650117        2.1892139451503154     
   3.2086322086164238       -7.7321716326440999       -2.4280792444934169     
   1.9484116175768156       -5.3575232672685935       -7.5998363134847970     
   7.4565283849687090       -5.2246427188924685       -2.5295690017430172     
  0.49632405025245141       -9.2275480975781523        2.2019055038532573     
   5.9083154156149620       -7.4372082697580328        2.3569756991966315E-002
   1.4015064137924631       -5.3338897933650600        2.8914845364058688     
   2.4082092568900051       -4.7144801377139283        7.8843832253112156     
   1.0307489828890990       -5.9054660396268988       -5.9884529664691630     
   1.8880496396113562       -7.8359945124359554       -5.0279744564168238     
  0.37350925736884855       -6.4170132128046973       -4.9299236458005344     
   3.2438428354355788       -8.9271991774599453      -0.18087518208415737     
   9.2227280484909961       -2.0642277730762122      -0.15456463895449341     
   5.0850429338604455       -8.0231873789666821      -0.14454437080213539     
  0.47846711629306826       -6.7021649575351496       -3.9735017006890638     
   5.9472777284727849       -5.8930087627702061       -1.7645503297498528     
 -0.82054048817459635       -6.8938624959791497      -0.49815975190894835     
   6.4934587532653598       -5.7133128977360172       0.12989749496197267     
   6.2548858783977730       -6.7613335818562277       -2.1539312890553370     
  -1.2145146044974695       -8.4871374088078060       0.18023220764469497     
   3.6073488539727605       -7.8058447254796279       -4.0383970997723440     
  -2.0812846165085763       -7.4390876551300247       -2.8402090163835174     
   1.5153380548626951       -7.3099852194449051      -0.92601472076369584     
  0.86565628402450190       -7.5672509268357109       -4.2929146811170042     
   6.2918510447915823       -4.2341556317577584       -3.5714230011654728     
   6.6488428569651958       -6.7743809137090913       -8.8222226210812105E-002
 -0.97469236290968508       -9.0203988127572625       -2.8176328389190086     
   2.5056789421635792       -5.9339266858677533       0.70033611591986233     
   4.7466821117208244       -5.8972543793317769       -1.4931118672705836     
  -1.2228766557652671       -9.4030020749647267       0.58206015261109123     
  0.96063620125147620       -8.9456991609093244        3.0451182566137702     
   4.1964159558535936       -8.5224603713566101       -9.0224860997466003E-002
   1.6349148872017445       -5.9646982368550221       0.18949476774683169     
[...]
POINT_DATA  500
SCALARS radius float
LOOKUP_TABLE default
  0.50000000000000000     
  0.50000000000000000     
  0.50000000000000000     
  0.50000000000000000     
  0.50000000000000000     
  0.50000000000000000     
  0.50000000000000000     
  0.50000000000000000     
  0.50000000000000000     
  0.50000000000000000     
  0.50000000000000000     
  0.50000000000000000     
  0.50000000000000000     
  0.50000000000000000     
  0.50000000000000000     
  0.50000000000000000     
  0.50000000000000000     
  0.50000000000000000     
  0.50000000000000000     
  0.50000000000000000     
  0.50000000000000000     
  0.50000000000000000     
  0.50000000000000000     
  0.50000000000000000     
  0.50000000000000000     
  0.50000000000000000     
  0.50000000000000000     
  0.50000000000000000     
  0.50000000000000000     
  0.50000000000000000     
  0.50000000000000000     
  0.50000000000000000     
  0.50000000000000000     
  0.50000000000000000     
  0.50000000000000000     
  0.50000000000000000     
  0.50000000000000000     
  0.50000000000000000     
  0.50000000000000000     
  0.50000000000000000     
  0.50000000000000000     
  0.50000000000000000     
  0.50000000000000000     
  0.50000000000000000     
  0.50000000000000000     
  0.50000000000000000     
  0.50000000000000000     
  0.50000000000000000     
  0.50000000000000000     
  0.50000000000000000     
  0.50000000000000000     
  0.50000000000000000     
  0.50000000000000000     
  0.50000000000000000     
  0.50000000000000000     
  0.50000000000000000     
  0.50000000000000000     
  0.50000000000000000     
  0.50000000000000000     
  0.50000000000000000     
  0.50000000000000000     
  0.50000000000000000     
  0.50000000000000000     
  0.50000000000000000     
  0.50000000000000000     
  0.50000000000000000     
  0.50000000000000000     
  0.50000000000000000     
  0.50000000000000000     
  0.50000000000000000     
  0.50000000000000000     
  0.50000000000000000     
  0.50000000000000000     
  0.50000000000000000     
  0.50000000000000000     
  0.50000000000000000     
  0.50000000000000000     
  0.50000000000000000     
  0.50000000000000000     
  0.50000000000000000     
  0.50000000000000000     
  0.50000000000000000     
  0.50000000000000000     
  0.50000000000000000     
  0.50000000000000000     
  0.50000000000000000     
  0.50000000000000000     
  0.50000000000000000     
  0.50000000000000000     
  0.50000000000000000     
  0.50000000000000000     
  0.50000000000000000     
  0.50000000000000000     
  0.50000000000000000     
  0.50000000000000000     
  0.50000000000000000     
  0.50000000000000000     
  0.50000000000000000     
  0.50000000000000000     
  0.50000000000000000     
  0.50000000000000000     
  0.50000000000000000     
  0.50000000000000000     
  0.50000000000000000     
  0.50000000000000000     
  0.50000000000000000     
  0.50000000000000000     
  0.50000000000000000     
  0.50000000000000000     
  0.50000000000000000     
  0.50000000000000000     
  0.50000000000000000     
  0.50000000000000000     
  0.50000000000000000     
  0.50000000000000000     
  0.50000000000000000     
  0.50000000000000000     
  0.50000000000000000     
  0.50000000000000000     
  0.50000000000000000     
  0.50000000000000000     
  0.50000000000000000     
  0.50000000000000000     
  0.50000000000000000     
  0.50000000000000000     
  0.50000000000000000     
  0.50000000000000000     
  0.50000000000000000     
  0.50000000000000000     
  0.50000000000000000     
  0.50000000000000000     
  0.50000000000000000     
  0.50000000000000000     
  0.50000000000000000     
  0.50000000000000000     
  0.50000000000000000     
  0.50000000000000000     
  0.50000000000000000     
  0.50000000000000000     
  0.50000000000000000     
  0.50000000000000000     
  0.50000000000000000     
  0.50000000000000000     
  0.50000000000000000     
  0.50000000000000000     
  0.50000000000000000     
  0.50000000000000000     
  0.50000000000000000     
  0.50000000000000000     
  0.50000000000000000     
  0.50000000000000000     
  0.50000000000000000     
  0.50000000000000000     
  0.50000000000000000     
  0.50000000000000000     
  0.50000000000000000     
  0.50000000000000000     
  0.50000000000000000     
  0.50000000000000000     
  0.50000000000000000     
  0.50000000000000000     
  0.50000000000000000     
  0.50000000000000000     
  0.50000000000000000     
  0.50000000000000000     
  0.50000000000000000     
  0.50000000000000000     
  0.50000000000000000     
  0.50000000000000000     
  0.50000000000000000     
  0.50000000000000000     
  0.50000000000000000     
  0.50000000000000000     
  0.50000000000000000     
  0.50000000000000000     
  0.50000000000000000     
  0.50000000000000000     
  0.50000000000000000     
  0.50000000000000000     
  0.50000000000000000     
  0.50000000000000000     
  0.50000000000000000     
  0.50000000000000000     
  0.50000000000000000     
  0.50000000000000000     
  0.50000000000000000     
  0.50000000000000000     
  0.50000000000000000     
  0.50000000000000000     
  0.50000000000000000     
  0.50000000000000000     
  0.50000000000000000     
  0.50000000000000000     
  0.50000000000000000     
  0.50000000000000000     
  0.50000000000000000     
  0.50000000000000000     
  0.50000000000000000     
  0.50000000000000000     
  0.50000000000000000     
  0.50000000000000000     
  0.50000000000000000     
  0.50000000000000000     
  0.50000000000000000     
  0.50000000000000000     
  0.50000000000000000     
  0.50000000000000000     
  0.50000000000000000     
  0.50000000000000000     
  0.50000000000000000     
  0.50000000000000000     
  0.50000000000000000     
  0.50000000000000000     
  0.50000000000000000     
  0.50000000000000000     
  0.50000000000000000     
  0.50000000000000000     
  0.50000000000000000     
  0.50000000000000000     
  0.50000000000000000     
  0.50000000000000000     
  0.50000000000000000     
  0.50000000000000000     
  0.50000000000000000     
  0.50000000000000000     
  0.50000000000000000     
  0.50000000000000000     
  0.50000000000000000     
  0.50000000000000000     
  0.50000000000000000     
  0.50000000000000000     
  0.50000000000000000     
  0.50000000000000000     
  0.50000000000000000     
  0.50000000000000000     
  0.50000000000000000     
  0.50000000000000000     
  0.50000000000000000     
  0.50000000000000000     
  0.50000000000000000     
  0.50000000000000000     
  0.50000000000000000     
  0.50000000000000000     
  0.50000000000000000     
  0.50000000000000000     
  0.50000000000000000     
  0.50000000000000000     
  0.50000000000000000     
  0.50000000000000000     
  0.50000000000000000     
  0.50000000000000000     
  0.50000000000000000     
  0.50000000000000000     
  0.50000000000000000     
  0.50000000000000000     
  0.50000000000000000     
  0.50000000000000000     
  0.50000000000000000     
  0.50000000000000000     
  0.50000000000000000     
  0.50000000000000000     
  0.50000000000000000     
  0.50000000000000000     
  0.50000000000000000     
  0.50000000000000000     
  0.50000000000000000     
  0.50000000000000000     
  0.50000000000000000     
  0.50000000000000000     
  0.50000000000000000     
  0.50000000000000000     
  0.50000000000000000     
  0.50000000000000000     
  0.50000000000000000     
  0.50000000000000000     
  0.50000000000000000     
  0.50000000000000000     
  0.50000000000000000     
  0.50000000000000000     
  0.50000000000000000     
  0.50000000000000000     
  0.50000000000000000     
  0.50000000000000000     
  0.50000000000000000     
  0.50000000000000000     
  0.50000000000000000     
  0.50000000000000000     
  0.50000000000000000     
  0.50000000000000000     
  0.50000000000000000     
  0.50000000000000000     
  0.50000000000000000     
  0.50000000000000000     
  0.50000000000000000     
  0.50000000000000000     
  0.50000000000000000     
  0.50000000000000000     
  0.50000000000000000     
  0.50000000000000000     
  0.50000000000000000     
  0.50000000000000000     
  0.50000000000000000     
  0.50000000000000000     
  0.50000000000000000     
  0.50000000000000000     
  0.50000000000000000     
  0.50000000000000000     
  0.50000000000000000     
  0.50000000000000000     
  0.50000000000000000     
  0.50000000000000000     
  0.50000000000000000     
  0.50000000000000000     
  0.50000000000000000     
  0.50000000000000000     
  0.50000000000000000     
  0.50000000000000000     
  0.50000000000000000     
  0.50000000000000000     
  0.50000000000000000     
  0.50000000000000000     
  0.50000000000000000     
  0.50000000000000000     
  0.50000000000000000     
  0.50000000000000000     
  0.50000000000000000     
  0.50000000000000000     
  0.50000000000000000     
  0.50000000000000000     
  0.50000000000000000     
  0.50000000000000000     
  0.50000000000000000     
  0.50000000000000000     
  0.50000000000000000     
  0.50000000000000000     
  0.50000000000000000     
  0.50000000000000000     
  0.50000000000000000     
  0.50000000000000000     
  0.50000000000000000     
  0.50000000000000000     
  0.50000000000000000     
  0.50000000000000000     
  0.50000000000000000     
  0.50000000000000000     
  0.50000000000000000     
  0.50000000000000000     
  0.50000000000000000     
  0.50000000000000000     
  0.50000000000000000     
  0.50000000000000000     
  0.50000000000000000     
  0.50000000000000000     
  0.50000000000000000     
  0.50000000000000000     
  0.50000000000000000     
  0.50000000000000000     
  0.50000000000000000     
  0.50000000000000000     
  0.50000000000000000     
  0.50000000000000000     
  0.50000000000000000     
  0.50000000000000000     
  0.50000000000000000     
  0.50000000000000000     
  0.50000000000000000     
  0.50000000000000000     
  0.50000000000000000     
  0.50000000000000000     
  0.50000000000000000     
  0.50000000000000000     
  0.50000000000000000     
  0.50000000000000000     
  0.50000000000000000     
  0.50000000000000000     
  0.50000000000000000     
  0.50000000000000000     
  0.50000000000000000     
  0.50000000000000000     
  0.50000000000000000     
  0.50000000000000000     
  0.50000000000000000     
  0.50000000000000000     
  0.50000000000000000     
  0.50000000000000000     
  0.50000000000000000     
  0.50000000000000000     
  0.50000000000000000     
  0.50000000000000000     
  0.50000000000000000     
  0.50000000000000000     
  0.50000000000000000     
  0.50000000000000000     
  0.50000000000000000     
  0.50000000000000000     
  0.50000000000000000     
  0.50000000000000000     
  0.50000000000000000     
  0.50000000000000000     
  0.50000000000000000     
  0.50000000000000000     
  0.50000000000000000     
  0.50000000000000000     
  0.50000000000000000     
  0.50000000000000000     
  0.50000000000000000     
  0.50000000000000000     
  0.50000000000000000     
  0.50000000000000000     
  0.50000000000000000     
  0.50000000000000000     
  0.50000000000000000     
  0.50000000000000000     
  0.50000000000000000     
  0.50000000000000000     
  0.50000000000000000     
  0.50000000000000000     
  0.50000000000000000     
  0.50000000000000000     
  0.50000000000000000     
  0.50000000000000000     
  0.50000000000000000     
  0.50000000000000000     
  0.50000000000000000     
  0.50000000000000000     
  0.50000000000000000     
  0.50000000000000000     
  0.50000000000000000     
  0.50000000000000000     
  0.50000000000000000     
  0.50000000000000000     
  0.50000000000000000     
  0.50000000000000000     
  0.50000000000000000     
  0.50000000000000000     
  0.50000000000000000     
  0.50000000000000000     
  0.50000000000000000     
  0.50000000000000000     
  0.50000000000000000     
  0.50000000000000000     
  0.50000000000000000     
  0.50000000000000000     
  0.50000000000000000     
  0.50000000000000000     
  0.50000000000000000     
  0.50000000000000000     
  0.50000000000000000     
  0.50000000000000000     
  0.50000000000000000     
  0.50000000000000000     
  0.50000000000000000     
  0.50000000000000000     
  0.50000000000000000     
  0.50000000000000000     
  0.50000000000000000     
  0.50000000000000000     
  0.50000000000000000     
  0.50000000000000000     
  0.50000000000000000     
  0.50000000000000000     
  0.50000000000000000     
  0.50000000000000000     
  0.50000000000000000     
  0.50000000000000000     
  0.50000000000000000     
  0.50000000000000000     
  0.50000000000000000     
  0.50000000000000000     
  0.50000000000000000     
  0.50000000000000000     
  0.50000000000000000     
  0.50000000000000000     
  0.50000000000000000     
  0.50000000000000000     
  0.50000000000000000     
  0.50000000000000000     
  0.50000000000000000     
  0.50000000000000000     
  0.50000000000000000     
  0.50000000000000000     
  0.50000000000000000     
  0.50000000000000000     
  0.50000000000000000     
  0.50000000000000000     
  0.50000000000000000     
  0.50000000000000000     
  0.50000000000000000     
  0.50000000000000000     
  0.50000000000000000     
  0.50000000000000000     
  0.50000000000000000     
  0.50000000000000000     
  0.50000000000000000     
  0.50000000000000000     
  0.50000000000000000     
  0.50000000000000000     
  0.50000000000000000     
  0.50000000000000000     
  0.50000000000000000     
