# vtk DataFile Version 5.1
Data.vtk
ASCII
DATASET UNSTRUCTURED_GRID
 
POINTS 500 float
   6.1901398182770606       -6.4304217787082854        3.2512658403030050     
   6.5835577844063291       -3.6727945910679658       -3.2203867440741525     
  -2.2728619480181869       -8.3909459389999608       -3.5531574558448997     
   4.8090018240328547       -7.0502308108614029       -1.2010005923380724     
  -1.5796620518274640       -7.3188814939962912       -2.4860244352791803     
   2.0724978360339272       -6.8856451075954626       -2.4721882130972750     
   1.8502887578379628       -8.0005156945372526        4.7768012924932011     
   1.2163255072195893       -7.5698794783923375       0.83029913012056389     
   3.0773320731232632       -8.9845880487170984       0.23697046238860558     
   5.0908110337033738       -7.5978809046658800       -2.5708558475304066     
   2.6205957854145403       -6.6568969641916178       -4.9390877275894187     
   5.2230887457600490       -5.4551252916389377       -1.5752068635611891     
   3.9544546664974041       -6.9952934770673316        3.1292611018104557     
   4.0450088077965640       -8.4386194734233211       -1.6332626311869858     
   7.1479740116377419       -4.5835326475077860        1.4211713254039522     
   9.0237698406099938       -2.5854980859792001       -1.1875285979061707     
   1.0760201337887556       -9.2985943738551775       -1.6204798468206989     
   1.2600217703583039       -6.6870012669065479       -7.6150685981898503E-002
  0.63172755998832331       -8.6716450959542790        3.8280044662384163     
   6.4322239652201638       -4.6586788558961176       -3.1484647741015661     
   1.3355159339714144       -7.4378726980019687       -1.0601080831580483     
   6.1234823141117607       -7.1790091318084057      -0.92635425275261907     
   4.4975036486085678       -4.8930969833142690        5.1623003535263363     
 -0.88749521526514119       -7.4232905131091576        5.8615430790447078     
 -0.80626416395723888       -8.7065399797007821       -1.6655371452769396     
  -2.4157788497740373       -9.1219033024910043       -1.0968509046196140     
   1.8772362233247375       -7.0085536978466081        2.6161830852560692     
  -2.1263487969173989       -7.5965337766129419      -0.50257876260429213     
   7.5351513074631011       -5.2378075506476200       -2.3459349066194024     
   9.0582792012664157       -1.8297811588603758        1.9761649978036069     
   2.8447766218508876       -6.2158788995179286      -0.35867717242915698     
   5.4167577988920579       -7.0640496966984534        3.2162316038718939     
   5.6234881774518550       -3.7399640549566779       -6.6791082612449717     
 -0.29947886778554433       -9.4899940587491951      -0.32115838762381982     
   3.6421688194958870       -8.0995718032423927       -3.3736832583976391     
   8.8144738514482093       -2.7054519640149111       -2.1604310927037362     
   5.7128310793387458       -5.2857497296975886      -0.69115120569118493     
   5.4123664081427236       -5.2230658318322529        5.7273097941832161     
 -0.16953940066520709       -8.4264309079523532        2.1396513097960712     
  0.75408278868410827       -9.0159501457987261        2.8966031523851163     
 -0.77017732020242002       -7.5669112533923579       0.67053976646941871     
   3.6923894846048566       -6.1228167373312861        2.7163789572340482     
  -1.2246689139497531       -9.3386801005509028        1.2411583413728045     
  -1.0489405366320259       -8.2541116599124873        4.5815001408173286     
   1.4272307109233735       -8.2525083421826846       -4.4676175912249994     
   4.9548957831961147       -7.9378474168613176       -1.6399674307295342     
   8.1523243314254401       -1.4711242177853423        4.1482370692262966     
   8.5254801406610934       -4.1598752092226761       -7.8374163959979121E-002
   5.1205713275881024       -6.1513146504931218       -3.0585562697753885     
  0.92526341197390560       -9.0099257145025025       -2.8664093274962319     
   3.0374827411992755       -7.9220206595141969       -1.2368315167138424     
   7.1351111965117306       -5.3620591933952015       -3.2541401719231540     
  0.82793166356282855       -7.5849325410686195      -0.16032485504671368     
   2.6109174245573792       -9.1010005145816688      -0.75198658266696261     
   6.1015861683438031       -2.8050174483495951        6.1570094058059404     
  -2.0267839262307183       -8.1163835419331551       -4.5017675150512657     
   1.7644642941547393       -6.2376093777087016        4.4529296031428700     
   8.2512155775405951       -1.7888135121563380       -2.5092424451978617     
   7.8532308077692079       -5.1466210418059619       -1.3986646212822871     
   3.9555027795520719       -6.5041507579317805        4.0003547313812557     
  -2.3516845682237624       -7.7641280387776161        1.5118176136079151     
   5.3754539184778904       -4.7491291323901077       -2.5219400547209823     
   1.7331024482750470       -5.3175438332165443        6.9125449291899361     
   2.0254460456534766       -8.1926730682596158       -1.2475093514116684     
   4.5466400355167256       -7.6089142750110366       -3.4183230178909607     
   3.2950929310386941       -7.3981968716134885       -4.9657711652406977     
  0.19579482301909293       -8.0193046815607332       -2.9444721467854680     
   2.8909687494963037       -5.8237989356224507       0.80923152145645361     
  -3.0703152502141453       -7.9262783717380687      -0.48839314771605824     
   6.1339525335220779       -5.8127281303196003        2.3769074175216347     
   3.9232637726720774       -7.5626361610288111       -4.1992979057398081     
   2.1019199686240624       -6.2782368516075220        6.8122429047035826     
   1.3865811687757583       -6.5717481098475563       0.98220281537654397     
  0.44145148649324861       -8.4908970589524273        1.3341496279930840     
   7.8384359880843837       -2.7443260505473726        1.2670998132439328     
   7.5120211174939922       -5.7733684677153976      -0.69689661649178247     
   3.3104642450658064       -7.1733465792480278        5.2752510937326775     
   3.8709985983829944       -7.5710868662357385       0.52061568286435056     
   5.3661057057658912       -7.8042374583230352      -0.73818478245072183     
   4.7055276425694110       -5.4896486723253579       -2.4297655703201735     
   3.5695362443155694       -6.5787017442498383       -1.6418227176471980     
  -1.5352643318944692       -8.4332348025121053       -1.0143102261092440     
  -7.8260473281373449E-002  -7.4293773486045618        2.4576068591076354     
  -1.8894400336094590       -7.4530419101626055        2.7360427223935000     
   6.5528991097494913       -3.6055237171920558        4.2108978717392924     
   5.4540492750342056       -5.7012756157787408        3.2622116343688337     
   1.6261640372642270       -7.3873084608173070        1.7249837137111876     
   9.3093331097951957       -1.6996731112022052      -0.80442341658732297     
   4.6013736570626378       -4.9347854084478699        3.5796557774645281     
  -2.4348120403405207       -7.3564028514855133       -3.9958183640076617     
   2.4564940199559593       -7.6343365280378821       -3.0125121429781201     
   2.8149432870475506       -8.5676973262359457       -2.9868029661900497     
  -2.8171892497216917       -8.0472041305164517       0.58496869629688431     
   4.2038654326629494       -7.0762016142427218       -2.2576693557025833     
   5.7373708818281877       -7.3450825054377979       -1.8389609344417115     
   8.1916244326240051       -3.3661805022604954       -3.4284750530489068     
   2.3832812979900728       -8.0545191502474793        1.4289559570718284     
  -1.7596311874895525       -8.1726865662180188        3.4265615511769472     
   3.8849224476044690       -7.9588055070629418        3.3874039098077779     
   6.9168788170540756       -5.7547609052063002        3.0473887825582158     
   3.3966118474891296       -6.0498199433254749       -4.7503029977070801     
   4.6956616109281413       -3.8680197881938980       -4.5636185410873127     
   2.8801088562096862       -7.3079854358292948       -4.0589937967628638     
   1.5959982488566542       -9.3359802853099012      -0.73576617893478080     
 -0.98748556137459798       -7.5414628500851304        3.3329416479306766     
   6.2144130732800846       -5.0564244323311698        3.1845513241324688     
   8.6172631621540781       -2.5014905610503475       -3.1201402848372646     
   2.0699640836406563       -6.2928763438895947       -1.0174244169075488     
   2.8096671731381355       -5.6883818932914956        4.4393190564813514     
   6.6297614771622850       -5.4735617649360631      -0.33340356756529299     
   2.6923101506111955       -7.1059519813303504       -1.7135535624729956     
   2.4277733220334947       -6.6756820079926174       -3.3837013820520614     
 -0.75639524829814198       -9.1118038320187704       -2.5793456779607853     
   4.1100640162340367       -6.4918235533361592      -0.75344696437039549     
   8.8764154831807254       -3.3423395368132849      -0.53578039974568137     
  -1.8002268106366224       -8.2096326676428575       -2.0137066017806289     
  -9.3499818880441468E-002  -8.9080925622446934       -3.2998933598960178     
   8.1185800241318766       -4.4657665117772476       -2.0933193341122029     
  0.81954638297206717       -7.6688349229270045       -3.7016440824708314     
   3.0992239130962109       -5.6794537007862731        5.5451549265447042     
   5.7108970178980485       -6.4138692152137109       -4.0490117474451583     
   1.3414832141443588E-002  -5.8153971855203661       0.40154795815188038     
   4.1865885617510443       -4.8587409161735104        2.0721852021595617     
   4.0570444463922071       -4.5590320170313996        7.2786106214871982     
  0.85592081800603759       -9.4009182052405613        1.0678143141235501     
[...]
POINT_DATA  500
SCALARS radius float
LOOKUP_TABLE default
  0.50000000000000000     
  0.50000000000000000     
  0.50000000000000000     
  0.50000000000000000     
  0.50000000000000000     
  0.50000000000000000     
  0.50000000000000000     
  0.50000000000000000     
  0.50000000000000000     
  0.50000000000000000     
  0.50000000000000000     
  0.50000000000000000     
  0.50000000000000000     
  0.50000000000000000     
  0.50000000000000000     
  0.50000000000000000     
  0.50000000000000000     
  0.50000000000000000     
  0.50000000000000000     
  0.50000000000000000     
  0.50000000000000000     
  0.50000000000000000     
  0.50000000000000000     
  0.50000000000000000     
  0.50000000000000000     
  0.50000000000000000     
  0.50000000000000000     
  0.50000000000000000     
  0.50000000000000000     
  0.50000000000000000     
  0.50000000000000000     
  0.50000000000000000     
  0.50000000000000000     
  0.50000000000000000     
  0.50000000000000000     
  0.50000000000000000     
  0.50000000000000000     
  0.50000000000000000     
  0.50000000000000000     
  0.50000000000000000     
  0.50000000000000000     
  0.50000000000000000     
  0.50000000000000000     
  0.50000000000000000     
  0.50000000000000000     
  0.50000000000000000     
  0.50000000000000000     
  0.50000000000000000     
  0.50000000000000000     
  0.50000000000000000     
  0.50000000000000000     
  0.50000000000000000     
  0.50000000000000000     
  0.50000000000000000     
  0.50000000000000000     
  0.50000000000000000     
  0.50000000000000000     
  0.50000000000000000     
  0.50000000000000000     
  0.50000000000000000     
  0.50000000000000000     
  0.50000000000000000     
  0.50000000000000000     
  0.50000000000000000     
  0.50000000000000000     
  0.50000000000000000     
  0.50000000000000000     
  0.50000000000000000     
  0.50000000000000000     
  0.50000000000000000     
  0.50000000000000000     
  0.50000000000000000     
  0.50000000000000000     
  0.50000000000000000     
  0.50000000000000000     
  0.50000000000000000     
  0.50000000000000000     
  0.50000000000000000     
  0.50000000000000000     
  0.50000000000000000     
  0.50000000000000000     
  0.50000000000000000     
  0.50000000000000000     
  0.50000000000000000     
  0.50000000000000000     
  0.50000000000000000     
  0.50000000000000000     
  0.50000000000000000     
  0.50000000000000000     
  0.50000000000000000     
  0.50000000000000000     
  0.50000000000000000     
  0.50000000000000000     
  0.50000000000000000     
  0.50000000000000000     
  0.50000000000000000     
  0.50000000000000000     
  0.50000000000000000     
  0.50000000000000000     
  0.50000000000000000     
  0.50000000000000000     
  0.50000000000000000     
  0.50000000000000000     
  0.50000000000000000     
  0.50000000000000000     
  0.50000000000000000     
  0.50000000000000000     
  0.50000000000000000     
  0.50000000000000000     
  0.50000000000000000     
  0.50000000000000000     
  0.50000000000000000     
  0.50000000000000000     
  0.50000000000000000     
  0.50000000000000000     
  0.50000000000000000     
  0.50000000000000000     
  0.50000000000000000     
  0.50000000000000000     
  0.50000000000000000     
  0.50000000000000000     
  0.50000000000000000     
  0.50000000000000000     
  0.50000000000000000     
  0.50000000000000000     
  0.50000000000000000     
  0.50000000000000000     
  0.50000000000000000     
  0.50000000000000000     
  0.50000000000000000     
  0.50000000000000000     
  0.50000000000000000     
  0.50000000000000000     
  0.50000000000000000     
  0.50000000000000000     
  0.50000000000000000     
  0.50000000000000000     
  0.50000000000000000     
  0.50000000000000000     
  0.50000000000000000     
  0.50000000000000000     
  0.50000000000000000     
  0.50000000000000000     
  0.50000000000000000     
  0.50000000000000000     
  0.50000000000000000     
  0.50000000000000000     
  0.50000000000000000     
  0.50000000000000000     
  0.50000000000000000     
  0.50000000000000000     
  0.50000000000000000     
  0.50000000000000000     
  0.50000000000000000     
  0.50000000000000000     
  0.50000000000000000     
  0.50000000000000000     
  0.50000000000000000     
  0.50000000000000000     
  0.50000000000000000     
  0.50000000000000000     
  0.50000000000000000     
  0.50000000000000000     
  0.50000000000000000     
  0.50000000000000000     
  0.50000000000000000     
  0.50000000000000000     
  0.50000000000000000     
  0.50000000000000000     
  0.50000000000000000     
  0.50000000000000000     
  0.50000000000000000     
  0.50000000000000000     
  0.50000000000000000     
  0.50000000000000000     
  0.50000000000000000     
  0.50000000000000000     
  0.50000000000000000     
  0.50000000000000000     
  0.50000000000000000     
  0.50000000000000000     
  0.50000000000000000     
  0.50000000000000000     
  0.50000000000000000     
  0.50000000000000000     
  0.50000000000000000     
  0.50000000000000000     
  0.50000000000000000     
  0.50000000000000000     
  0.50000000000000000     
  0.50000000000000000     
  0.50000000000000000     
  0.50000000000000000     
  0.50000000000000000     
  0.50000000000000000     
  0.50000000000000000     
  0.50000000000000000     
  0.50000000000000000     
  0.50000000000000000     
  0.50000000000000000     
  0.50000000000000000     
  0.50000000000000000     
  0.50000000000000000     
  0.50000000000000000     
  0.50000000000000000     
  0.50000000000000000     
  0.50000000000000000     
  0.50000000000000000     
  0.50000000000000000     
  0.50000000000000000     
  0.50000000000000000     
  0.50000000000000000     
  0.50000000000000000     
  0.50000000000000000     
  0.50000000000000000     
  0.50000000000000000     
  0.50000000000000000     
  0.50000000000000000     
  0.50000000000000000     
  0.50000000000000000     
  0.50000000000000000     
  0.50000000000000000     
  0.50000000000000000     
  0.50000000000000000     
  0.50000000000000000     
  0.50000000000000000     
  0.50000000000000000     
  0.50000000000000000     
  0.50000000000000000     
  0.50000000000000000     
  0.50000000000000000     
  0.50000000000000000     
  0.50000000000000000     
  0.50000000000000000     
  0.50000000000000000     
  0.50000000000000000     
  0.50000000000000000     
  0.50000000000000000     
  0.50000000000000000     
  0.50000000000000000     
  0.50000000000000000     
  0.50000000000000000     
  0.50000000000000000     
  0.50000000000000000     
  0.50000000000000000     
  0.50000000000000000     
  0.50000000000000000     
  0.50000000000000000     
  0.50000000000000000     
  0.50000000000000000     
  0.50000000000000000     
  0.50000000000000000     
  0.50000000000000000     
  0.50000000000000000     
  0.50000000000000000     
  0.50000000000000000     
  0.50000000000000000     
  0.50000000000000000     
  0.50000000000000000     
  0.50000000000000000     
  0.50000000000000000     
  0.50000000000000000     
  0.50000000000000000     
  0.50000000000000000     
  0.50000000000000000     
  0.50000000000000000     
  0.50000000000000000     
  0.50000000000000000     
  0.50000000000000000     
  0.50000000000000000     
  0.50000000000000000     
  0.50000000000000000     
  0.50000000000000000     
  0.50000000000000000     
  0.50000000000000000     
  0.50000000000000000     
  0.50000000000000000     
  0.50000000000000000     
  0.50000000000000000     
  0.50000000000000000     
  0.50000000000000000     
  0.50000000000000000     
  0.50000000000000000     
  0.50000000000000000     
  0.50000000000000000     
  0.50000000000000000     
  0.50000000000000000     
  0.50000000000000000     
  0.50000000000000000     
  0.50000000000000000     
  0.50000000000000000     
  0.50000000000000000     
  0.50000000000000000     
  0.50000000000000000     
  0.50000000000000000     
  0.50000000000000000     
  0.50000000000000000     
  0.50000000000000000     
  0.50000000000000000     
  0.50000000000000000     
  0.50000000000000000     
  0.50000000000000000     
  0.50000000000000000     
  0.50000000000000000     
  0.50000000000000000     
  0.50000000000000000     
  0.50000000000000000     
  0.50000000000000000     
  0.50000000000000000     
  0.50000000000000000     
  0.50000000000000000     
  0.50000000000000000     
  0.50000000000000000     
  0.50000000000000000     
  0.50000000000000000     
  0.50000000000000000     
  0.50000000000000000     
  0.50000000000000000     
  0.50000000000000000     
  0.50000000000000000     
  0.50000000000000000     
  0.50000000000000000     
  0.50000000000000000     
  0.50000000000000000     
  0.50000000000000000     
  0.50000000000000000     
  0.50000000000000000     
  0.50000000000000000     
  0.50000000000000000     
  0.50000000000000000     
  0.50000000000000000     
  0.50000000000000000     
  0.50000000000000000     
  0.50000000000000000     
  0.50000000000000000     
  0.50000000000000000     
  0.50000000000000000     
  0.50000000000000000     
  0.50000000000000000     
  0.50000000000000000     
  0.50000000000000000     
  0.50000000000000000     
  0.50000000000000000     
  0.50000000000000000     
  0.50000000000000000     
  0.50000000000000000     
  0.50000000000000000     
  0.50000000000000000     
  0.50000000000000000     
  0.50000000000000000     
  0.50000000000000000     
  0.50000000000000000     
  0.50000000000000000     
  0.50000000000000000     
  0.50000000000000000     
  0.50000000000000000     
  0.50000000000000000     
  0.50000000000000000     
  0.50000000000000000     
  0.50000000000000000     
  0.50000000000000000     
  0.50000000000000000     
  0.50000000000000000     
  0.50000000000000000     
  0.50000000000000000     
  0.50000000000000000     
  0.50000000000000000     
  0.50000000000000000     
  0.50000000000000000     
  0.50000000000000000     
  0.50000000000000000     
  0.50000000000000000     
  0.50000000000000000     
  0.50000000000000000     
  0.50000000000000000     
  0.50000000000000000     
  0.50000000000000000     
  0.50000000000000000     
  0.50000000000000000     
  0.50000000000000000     
  0.50000000000000000     
  0.50000000000000000     
  0.50000000000000000     
  0.50000000000000000     
  0.50000000000000000     
  0.50000000000000000     
  0.50000000000000000     
  0.50000000000000000     
  0.50000000000000000     
  0.50000000000000000     
  0.50000000000000000     
  0.50000000000000000     
  0.50000000000000000     
  0.50000000000000000     
  0.50000000000000000     
  0.50000000000000000     
  0.50000000000000000     
  0.50000000000000000     
  0.50000000000000000     
  0.50000000000000000     
  0.50000000000000000     
  0.50000000000000000     
  0.50000000000000000     
  0.50000000000000000     
  0.50000000000000000     
  0.50000000000000000     
  0.50000000000000000     
  0.50000000000000000     
  0.50000000000000000     
  0.50000000000000000     
  0.50000000000000000     
  0.50000000000000000     
  0.50000000000000000     
  0.50000000000000000     
  0.50000000000000000     
  0.50000000000000000     
  0.50000000000000000     
  0.50000000000000000     
  0.50000000000000000     
  0.50000000000000000     
  0.50000000000000000     
  0.50000000000000000     
  0.50000000000000000     
  0.50000000000000000     
  0.50000000000000000     
  0.50000000000000000     
  0.50000000000000000     
  0.50000000000000000     
  0.50000000000000000     
  0.50000000000000000     
  0.50000000000000000     
  0.50000000000000000     
  0.50000000000000000     
  0.50000000000000000     
  0.50000000000000000     
  0.50000000000000000     
  0.50000000000000000     
  0.50000000000000000     
  0.50000000000000000     
  0.50000000000000000     
  0.50000000000000000     
  0.50000000000000000     
  0.50000000000000000     
  0.50000000000000000     
  0.50000000000000000     
  0.50000000000000000     
  0.50000000000000000     
  0.50000000000000000     
  0.50000000000000000     
  0.50000000000000000     
  0.50000000000000000     
  0.50000000000000000     
  0.50000000000000000     
  0.50000000000000000     
  0.50000000000000000     
  0.50000000000000000     
  0.50000000000000000     
  0.50000000000000000     
  0.50000000000000000     
  0.50000000000000000     
  0.50000000000000000     
  0.50000000000000000     
  0.50000000000000000     
  0.50000000000000000     
  0.50000000000000000     
  0.50000000000000000     
  0.50000000000000000     
  0.50000000000000000     
  0.50000000000000000     
  0.50000000000000000     
  0.50000000000000000     
  0.50000000000000000     
  0.50000000000000000     
  0.50000000000000000     
  0.50000000000000000     
  0.50000000000000000     
  0.50000000000000000     
  0.50000000000000000     
  0.50000000000000000     
  0.50000000000000000     
  0.50000000000000000     
  0.50000000000000000     
  0.50000000000000000     
  0.50000000000000000     
  0.50000000000000000     
  0.50000000000000000     
  0.50000000000000000     
  0.50000000000000000     
  0.50000000000000000     
  0.50000000000000000     
  0.50000000000000000     
  0.50000000000000000     
  0.50000000000000000     
  0.50000000000000000     
  0.50000000000000000     
  0.50000000000000000     
  0.50000000000000000     
  0.50000000000000000     
  0.50000000000000000     
  0.50000000000000000     
