# vtk DataFile Version 5.1
Data.vtk
ASCII
DATASET UNSTRUCTURED_GRID
 
POINTS 500 float
   1.2215732161565607       -5.9689628398873262        2.5036199544592450     
  0.24374681120477018       -8.2821374584576493       -2.3520843854173532     
  -2.2633580715732600       -9.1839513861069513      -0.88452802312915446     
  0.45068535187541553       -7.3042090504139789       -2.3168750395197817     
   4.2216848080223990       -5.3635203998728436       -3.3492204601136062     
   7.2081744721317218       -5.9956404275070874       -1.5313958921113762     
   4.9752330870300892       -6.4710865111430662        2.8343831844444103     
   3.4622615130999552       -6.8786719214488565       0.52264626390154489     
   6.1159298679860932       -3.7287226232970658       -3.7752712903067107     
  -1.8286917442634263       -8.1574076195762473       -1.9562258308691372     
   8.7515440093658636      -0.30512013855542108       -3.5836109284371500     
   4.5696981106133610       -7.9889537163113991       -2.3519138843878422     
   4.2586011282084488       -6.4219887432950484        3.5316198458792396     
   4.0286566410182427       -7.5972239273007283       0.11027836807050820     
  -1.9038034802562300       -8.3779374393612596       0.52008846749491178     
   6.5896670612583534       -3.2209085134713678       -1.9980729660144274     
   6.7344192362675575       -2.0500682306280207       -4.0497327696441587     
   7.1897189884306432       -1.5487438931462012        2.1230845104041873     
   2.3025500405654635       -6.7995220594388384        4.8855752611986576     
   5.2087709005179876       -5.2356507082350028       -4.1778854121654332     
   3.6420358923600200       -6.5571490694274130       -1.2746133100786916     
 -0.74865918917130958       -9.4678024306122843       0.21710853213161707     
   3.1683140920818036       -8.3745671293662856        3.1751971041136842     
   2.3847817523446149       -7.3660779631423727        3.6501700710391956     
   6.0123634258089167       -6.0614243403159644      -0.69542050199239058     
   2.1425689616501433       -9.1924946595634882       -1.0758669929055058     
   1.7302952100575721       -8.1733516677349005        1.6996769910070020     
   2.6640097441800989       -8.8923303087834071       -2.0177183529622469     
   2.5593643747240615       -6.3688768479358169       -6.3573022984322680     
   4.7844420326578971       -4.9565192156547608        3.3527732388632794     
   7.8041547347094200       -5.2677768518839274       -1.1924074875202857     
   4.1016138262234287       -4.9601613595377581        4.1135400409946508     
   1.6631878905371382       -6.8331661665665360       -6.3524548483031520     
   4.4246017698970270       -7.3253200063942323        1.0772689747852608     
   5.9289969347035197E-002  -6.3798949773337634       -2.1003149922373869     
  0.94395825977714443       -8.9938979476409600       -2.9103294474499264     
   9.2452969837404133       -1.4015526256546884       0.31641039879796229     
   5.1152124379790482       -5.1945548107608053        6.0585962104790454     
   7.7587598535476596       -3.4472702579411325       0.97461768496372303     
   2.7179260932452136       -6.3873037083993278        6.4677477774101444     
 -0.70838328356103697       -7.7787550409417738       0.86455321076012459     
   8.0569159396434120       -1.3375523725044554        4.0560688570578272     
   4.6964944895185701       -4.2881345467196574        5.9254291531798611     
   7.5709826062046632       -4.4452511179370084        3.6274060254754521     
   5.7257239875795198       -4.5557038450179927       -5.8759659345717798     
   6.4593261485830791       -1.7849924151327403       -6.4755182399086841     
  -1.2260964274650130       -8.6856543043809733        3.6480556018586250     
   9.1847870068706765       -1.1971828263583322       -1.7075577302936247     
   5.3159859613640741       -5.7762125547567820       -3.3429718976148184     
  -1.8916896929409552       -7.4043218310185930       0.83345377100578655     
   8.9873356573541017       -2.9526596099601004      -0.86417206594747698     
   4.7889803022903621       -4.6906758928722976       -5.0880537502180259     
   4.0796895345813695       -6.4310539809174294      -0.36005955809572404     
  -1.5014613134180028       -8.0553896951657666        2.3155017636634492     
 -0.46761595618984714       -8.0303664439173819        2.8319662071981639     
   7.4515791640419566       -4.1268067216752797       -4.1735671312578084     
 -0.98709130645459597       -7.1759713825643132        2.8160156312973146     
   5.5715045151952136E-002  -7.4133320846999196       -5.9405332197424849     
   4.8225446344408294       -7.0737202709717595       -4.1165534184759167     
  0.50320023557013793       -8.0344575074749471        3.2624141795741970     
   5.1637586734220422       -5.7670536186683181       0.64139201456852990     
   5.4147123988898969       -7.3938121451499734       -2.4839991806644153     
   3.3036994489868365       -7.9279957552843552        4.0599162675865514     
   8.6563575852986965       -3.8417287661813675      -0.54345538024451379     
   3.5083092983664259       -6.5685965207237729       -5.8911151843446596     
   4.3500514766049880       -6.0073278443325968       -5.9225203160425428     
   5.3878649245103967       -6.8390112999080124      -0.77237403053474640     
   7.7031037636273609       -2.7504484688838389        4.7673367048581490     
 -0.11585928570108607       -6.2550619134384977      -0.33879889785733219     
  0.30644906478891626       -7.2782438255127158        2.2933724618571927     
   6.8189989945158453       -4.4145227393692181       -4.8929768407068162     
   1.8529454628071367       -6.9052121161582898        6.2379998516012645     
   7.4926963162164446       -3.7956282254317406        4.3836743518071479     
   5.8186016818742816       -4.6022241616950099        1.9874501414268659     
   1.0948986718975807E-003  -9.2020176367154143        2.2184490808887976     
  -1.4552731432273811       -7.5475683035379246       -2.7789900197777060     
   5.6867344296501150       -6.1791169857868589        4.4416508510065835     
   2.2681394571339402       -7.2516148936157849      -0.51660505804562395     
   8.9460072439832299       -3.1925019302173028       0.16298904167267975     
   3.2558948321029271       -5.6823731037565173       -1.6899302787644102     
  0.52493453574585180       -5.7343935371200656       0.28021541611716638     
  -1.2893128317865981       -7.5319009186254373       -1.3925515970744036     
   4.0152694123964618       -7.0542460008084964        2.7961078598981972     
  -1.0167637191449874       -7.3501906603987228        4.7743831371510748     
   3.8221835018364025       -8.3712212586870081        2.3570767756663296     
   1.3098386902512289       -7.3859825132913750        2.1859655578469215     
   3.8313954238717023       -6.6044236071329117        1.4448025198470082     
   8.0441890386024308       -4.4668860214746857       -2.2798163522122787     
   4.9795639908701848       -8.0625680303131890       0.65124046386923495     
 -0.60245947912774311       -6.8894824870345142       -3.5485242719298933     
   6.6135403780252897       -4.9719711944877911       -2.4514630895415364     
   8.8203896540280855       -2.7395753334831165       -2.2235713289444154     
   9.2635980193497591      -0.50753906101691704      -0.52902579615307066     
   6.1554802125361512       -4.1907566059682493       -2.8827694221037068     
  -1.2994474181070781       -7.6327760278840255       -5.5047513048614851     
   7.6042413333394032       -2.4419382547040835       -5.0674302151037827     
   2.5972908177673513       -9.0255143431886147        1.4297740988793550     
  -1.5382618340688807       -7.7523466223730564      -0.17633271913119966     
   3.5021456495687318       -5.1480618199634920        7.1593224487619835     
  0.41816580480028764       -6.4491154966449251        5.5579261864197065     
   3.5811429198747100       -6.0975033981681621       -3.0551647935069535     
   5.7269592602138859       -6.8321534610783701       -3.2823557067653524     
  -1.6402133982920752       -9.2018426427887281       -1.6941707730009106     
 -0.11208986490046979       -6.7712588884705900       -1.1962298418571546     
 -0.16501843370210509       -9.4151998172699241        1.2556596686103654     
   1.4071000929456642E-002  -7.2374611344612223        1.3373141930836683     
  0.19702993074987185       -6.6254217695365201       -6.5600555973469517     
   2.7755289785810806       -6.9163184748200752       -4.1641738755846651     
   9.2274664843033865       -1.5785485307460403        1.3024459486913136     
   1.8557179985142271       -6.4721357870721672      -0.99149755549946272     
   7.6949990268648021       -5.5654223748530383      -0.24359292931725585     
   7.0540987719217991       -5.0500320624247115       0.32521936028980042     
   6.8842570173284514       -6.0508571270904907       -2.4760844248877611     
   2.3548429008454224       -6.1981740047981351       -1.8135972879005553     
   8.5160527935211370       -4.1146827348903878       0.45816523333169201     
   3.6065503032932971       -5.5722813877350079       -4.1337828107965269     
   7.6400497624032191       -4.5411961136178940       -3.2818102329668410     
 -0.35324309217509514       -9.3234857781285889       -1.7878374873823191     
  -1.0532365836395630       -7.1846381156535291       -4.6075682308147510     
   2.1055954350552266       -8.3011957152849813        2.0177135507692259E-002
  -1.5435325305311729       -6.7828290142609804       0.11360486839539811     
   1.4271292754798495       -6.5232143188428475        1.6874841155529892     
   5.3551053303547693       -7.6592206201804300        1.7005088126807633     
   1.2380209874600614       -9.3962612339785156      -0.65452158053592424     
   7.5558760549834236       -5.6350570783227578        1.1852359002602533     
[...]
POINT_DATA  500
SCALARS radius float
LOOKUP_TABLE default
  0.50000000000000000     
  0.50000000000000000     
  0.50000000000000000     
  0.50000000000000000     
  0.50000000000000000     
  0.50000000000000000     
  0.50000000000000000     
  0.50000000000000000     
  0.50000000000000000     
  0.50000000000000000     
  0.50000000000000000     
  0.50000000000000000     
  0.50000000000000000     
  0.50000000000000000     
  0.50000000000000000     
  0.50000000000000000     
  0.50000000000000000     
  0.50000000000000000     
  0.50000000000000000     
  0.50000000000000000     
  0.50000000000000000     
  0.50000000000000000     
  0.50000000000000000     
  0.50000000000000000     
  0.50000000000000000     
  0.50000000000000000     
  0.50000000000000000     
  0.50000000000000000     
  0.50000000000000000     
  0.50000000000000000     
  0.50000000000000000     
  0.50000000000000000     
  0.50000000000000000     
  0.50000000000000000     
  0.50000000000000000     
  0.50000000000000000     
  0.50000000000000000     
  0.50000000000000000     
  0.50000000000000000     
  0.50000000000000000     
  0.50000000000000000     
  0.50000000000000000     
  0.50000000000000000     
  0.50000000000000000     
  0.50000000000000000     
  0.50000000000000000     
  0.50000000000000000     
  0.50000000000000000     
  0.50000000000000000     
  0.50000000000000000     
  0.50000000000000000     
  0.50000000000000000     
  0.50000000000000000     
  0.50000000000000000     
  0.50000000000000000     
  0.50000000000000000     
  0.50000000000000000     
  0.50000000000000000     
  0.50000000000000000     
  0.50000000000000000     
  0.50000000000000000     
  0.50000000000000000     
  0.50000000000000000     
  0.50000000000000000     
  0.50000000000000000     
  0.50000000000000000     
  0.50000000000000000     
  0.50000000000000000     
  0.50000000000000000     
  0.50000000000000000     
  0.50000000000000000     
  0.50000000000000000     
  0.50000000000000000     
  0.50000000000000000     
  0.50000000000000000     
  0.50000000000000000     
  0.50000000000000000     
  0.50000000000000000     
  0.50000000000000000     
  0.50000000000000000     
  0.50000000000000000     
  0.50000000000000000     
  0.50000000000000000     
  0.50000000000000000     
  0.50000000000000000     
  0.50000000000000000     
  0.50000000000000000     
  0.50000000000000000     
  0.50000000000000000     
  0.50000000000000000     
  0.50000000000000000     
  0.50000000000000000     
  0.50000000000000000     
  0.50000000000000000     
  0.50000000000000000     
  0.50000000000000000     
  0.50000000000000000     
  0.50000000000000000     
  0.50000000000000000     
  0.50000000000000000     
  0.50000000000000000     
  0.50000000000000000     
  0.50000000000000000     
  0.50000000000000000     
  0.50000000000000000     
  0.50000000000000000     
  0.50000000000000000     
  0.50000000000000000     
  0.50000000000000000     
  0.50000000000000000     
  0.50000000000000000     
  0.50000000000000000     
  0.50000000000000000     
  0.50000000000000000     
  0.50000000000000000     
  0.50000000000000000     
  0.50000000000000000     
  0.50000000000000000     
  0.50000000000000000     
  0.50000000000000000     
  0.50000000000000000     
  0.50000000000000000     
  0.50000000000000000     
  0.50000000000000000     
  0.50000000000000000     
  0.50000000000000000     
  0.50000000000000000     
  0.50000000000000000     
  0.50000000000000000     
  0.50000000000000000     
  0.50000000000000000     
  0.50000000000000000     
  0.50000000000000000     
  0.50000000000000000     
  0.50000000000000000     
  0.50000000000000000     
  0.50000000000000000     
  0.50000000000000000     
  0.50000000000000000     
  0.50000000000000000     
  0.50000000000000000     
  0.50000000000000000     
  0.50000000000000000     
  0.50000000000000000     
  0.50000000000000000     
  0.50000000000000000     
  0.50000000000000000     
  0.50000000000000000     
  0.50000000000000000     
  0.50000000000000000     
  0.50000000000000000     
  0.50000000000000000     
  0.50000000000000000     
  0.50000000000000000     
  0.50000000000000000     
  0.50000000000000000     
  0.50000000000000000     
  0.50000000000000000     
  0.50000000000000000     
  0.50000000000000000     
  0.50000000000000000     
  0.50000000000000000     
  0.50000000000000000     
  0.50000000000000000     
  0.50000000000000000     
  0.50000000000000000     
  0.50000000000000000     
  0.50000000000000000     
  0.50000000000000000     
  0.50000000000000000     
  0.50000000000000000     
  0.50000000000000000     
  0.50000000000000000     
  0.50000000000000000     
  0.50000000000000000     
  0.50000000000000000     
  0.50000000000000000     
  0.50000000000000000     
  0.50000000000000000     
  0.50000000000000000     
  0.50000000000000000     
  0.50000000000000000     
  0.50000000000000000     
  0.50000000000000000     
  0.50000000000000000     
  0.50000000000000000     
  0.50000000000000000     
  0.50000000000000000     
  0.50000000000000000     
  0.50000000000000000     
  0.50000000000000000     
  0.50000000000000000     
  0.50000000000000000     
  0.50000000000000000     
  0.50000000000000000     
  0.50000000000000000     
  0.50000000000000000     
  0.50000000000000000     
  0.50000000000000000     
  0.50000000000000000     
  0.50000000000000000     
  0.50000000000000000     
  0.50000000000000000     
  0.50000000000000000     
  0.50000000000000000     
  0.50000000000000000     
  0.50000000000000000     
  0.50000000000000000     
  0.50000000000000000     
  0.50000000000000000     
  0.50000000000000000     
  0.50000000000000000     
  0.50000000000000000     
  0.50000000000000000     
  0.50000000000000000     
  0.50000000000000000     
  0.50000000000000000     
  0.50000000000000000     
  0.50000000000000000     
  0.50000000000000000     
  0.50000000000000000     
  0.50000000000000000     
  0.50000000000000000     
  0.50000000000000000     
  0.50000000000000000     
  0.50000000000000000     
  0.50000000000000000     
  0.50000000000000000     
  0.50000000000000000     
  0.50000000000000000     
  0.50000000000000000     
  0.50000000000000000     
  0.50000000000000000     
  0.50000000000000000     
  0.50000000000000000     
  0.50000000000000000     
  0.50000000000000000     
  0.50000000000000000     
  0.50000000000000000     
  0.50000000000000000     
  0.50000000000000000     
  0.50000000000000000     
  0.50000000000000000     
  0.50000000000000000     
  0.50000000000000000     
  0.50000000000000000     
  0.50000000000000000     
  0.50000000000000000     
  0.50000000000000000     
  0.50000000000000000     
  0.50000000000000000     
  0.50000000000000000     
  0.50000000000000000     
  0.50000000000000000     
  0.50000000000000000     
  0.50000000000000000     
  0.50000000000000000     
  0.50000000000000000     
  0.50000000000000000     
  0.50000000000000000     
  0.50000000000000000     
  0.50000000000000000     
  0.50000000000000000     
  0.50000000000000000     
  0.50000000000000000     
  0.50000000000000000     
  0.50000000000000000     
  0.50000000000000000     
  0.50000000000000000     
  0.50000000000000000     
  0.50000000000000000     
  0.50000000000000000     
  0.50000000000000000     
  0.50000000000000000     
  0.50000000000000000     
  0.50000000000000000     
  0.50000000000000000     
  0.50000000000000000     
  0.50000000000000000     
  0.50000000000000000     
  0.50000000000000000     
  0.50000000000000000     
  0.50000000000000000     
  0.50000000000000000     
  0.50000000000000000     
  0.50000000000000000     
  0.50000000000000000     
  0.50000000000000000     
  0.50000000000000000     
  0.50000000000000000     
  0.50000000000000000     
  0.50000000000000000     
  0.50000000000000000     
  0.50000000000000000     
  0.50000000000000000     
  0.50000000000000000     
  0.50000000000000000     
  0.50000000000000000     
  0.50000000000000000     
  0.50000000000000000     
  0.50000000000000000     
  0.50000000000000000     
  0.50000000000000000     
  0.50000000000000000     
  0.50000000000000000     
  0.50000000000000000     
  0.50000000000000000     
  0.50000000000000000     
  0.50000000000000000     
  0.50000000000000000     
  0.50000000000000000     
  0.50000000000000000     
  0.50000000000000000     
  0.50000000000000000     
  0.50000000000000000     
  0.50000000000000000     
  0.50000000000000000     
  0.50000000000000000     
  0.50000000000000000     
  0.50000000000000000     
  0.50000000000000000     
  0.50000000000000000     
  0.50000000000000000     
  0.50000000000000000     
  0.50000000000000000     
  0.50000000000000000     
  0.50000000000000000     
  0.50000000000000000     
  0.50000000000000000     
  0.50000000000000000     
  0.50000000000000000     
  0.50000000000000000     
  0.50000000000000000     
  0.50000000000000000     
  0.50000000000000000     
  0.50000000000000000     
  0.50000000000000000     
  0.50000000000000000     
  0.50000000000000000     
  0.50000000000000000     
  0.50000000000000000     
  0.50000000000000000     
  0.50000000000000000     
  0.50000000000000000     
  0.50000000000000000     
  0.50000000000000000     
  0.50000000000000000     
  0.50000000000000000     
  0.50000000000000000     
  0.50000000000000000     
  0.50000000000000000     
  0.50000000000000000     
  0.50000000000000000     
  0.50000000000000000     
  0.50000000000000000     
  0.50000000000000000     
  0.50000000000000000     
  0.50000000000000000     
  0.50000000000000000     
  0.50000000000000000     
  0.50000000000000000     
  0.50000000000000000     
  0.50000000000000000     
  0.50000000000000000     
  0.50000000000000000     
  0.50000000000000000     
  0.50000000000000000     
  0.50000000000000000     
  0.50000000000000000     
  0.50000000000000000     
  0.50000000000000000     
  0.50000000000000000     
  0.50000000000000000     
  0.50000000000000000     
  0.50000000000000000     
  0.50000000000000000     
  0.50000000000000000     
  0.50000000000000000     
  0.50000000000000000     
  0.50000000000000000     
  0.50000000000000000     
  0.50000000000000000     
  0.50000000000000000     
  0.50000000000000000     
  0.50000000000000000     
  0.50000000000000000     
  0.50000000000000000     
  0.50000000000000000     
  0.50000000000000000     
  0.50000000000000000     
  0.50000000000000000     
  0.50000000000000000     
  0.50000000000000000     
  0.50000000000000000     
  0.50000000000000000     
  0.50000000000000000     
  0.50000000000000000     
  0.50000000000000000     
  0.50000000000000000     
  0.50000000000000000     
  0.50000000000000000     
  0.50000000000000000     
  0.50000000000000000     
  0.50000000000000000     
  0.50000000000000000     
  0.50000000000000000     
  0.50000000000000000     
  0.50000000000000000     
  0.50000000000000000     
  0.50000000000000000     
  0.50000000000000000     
  0.50000000000000000     
  0.50000000000000000     
  0.50000000000000000     
  0.50000000000000000     
  0.50000000000000000     
  0.50000000000000000     
  0.50000000000000000     
  0.50000000000000000     
  0.50000000000000000     
  0.50000000000000000     
  0.50000000000000000     
  0.50000000000000000     
  0.50000000000000000     
  0.50000000000000000     
  0.50000000000000000     
  0.50000000000000000     
  0.50000000000000000     
  0.50000000000000000     
  0.50000000000000000     
  0.50000000000000000     
  0.50000000000000000     
  0.50000000000000000     
  0.50000000000000000     
  0.50000000000000000     
  0.50000000000000000     
  0.50000000000000000     
  0.50000000000000000     
  0.50000000000000000     
  0.50000000000000000     
  0.50000000000000000     
  0.50000000000000000     
  0.50000000000000000     
  0.50000000000000000     
  0.50000000000000000     
  0.50000000000000000     
  0.50000000000000000     
  0.50000000000000000     
  0.50000000000000000     
  0.50000000000000000     
  0.50000000000000000     
  0.50000000000000000     
  0.50000000000000000     
  0.50000000000000000     
  0.50000000000000000     
  0.50000000000000000     
  0.50000000000000000     
  0.50000000000000000     
  0.50000000000000000     
  0.50000000000000000     
  0.50000000000000000     
  0.50000000000000000     
  0.50000000000000000     
  0.50000000000000000     
  0.50000000000000000     
  0.50000000000000000     
  0.50000000000000000     
  0.50000000000000000     
  0.50000000000000000     
  0.50000000000000000     
  0.50000000000000000     
  0.50000000000000000     
  0.50000000000000000     
  0.50000000000000000     
  0.50000000000000000     
  0.50000000000000000     
  0.50000000000000000     
  0.50000000000000000     
  0.50000000000000000     
  0.50000000000000000     
  0.50000000000000000     
  0.50000000000000000     
  0.50000000000000000     
  0.50000000000000000     
  0.50000000000000000     
  0.50000000000000000     
  0.50000000000000000     
  0.50000000000000000     
  0.50000000000000000     
  0.50000000000000000     
  0.50000000000000000     
  0.50000000000000000     
  0.50000000000000000     
  0.50000000000000000     
  0.50000000000000000     
  0.50000000000000000     
  0.50000000000000000     
  0.50000000000000000     
  0.50000000000000000     
  0.50000000000000000     
