# vtk DataFile Version 5.1
Data.vtk
ASCII
DATASET UNSTRUCTURED_GRID
 
POINTS 500 float
  -2.8945084569726589       -8.9403075151280387        1.3791548992828961     
   2.1659651127678519       -8.2774300586051428       -1.7496449669156184     
   7.0181571389158020       -6.3276044090717551      -0.97209709559366242     
  -1.0584065096776545       -7.4410576883818367       -1.6147302027965991     
 -0.13413417560135257       -6.7834013727563125       -3.9024320638804726     
   6.1894465799341871       -4.5849719435958978      -0.59103477600246146     
   5.8384925452075480       -5.7655354281695486        2.3704458454957313     
   2.5805157147065563       -7.3191522650449130       0.40225339308364577     
  0.83101935343413214       -6.7009122558093068       -4.4946700417048229     
   2.5344640505429923       -9.0854532454411174       -1.1287462065888745     
   1.1416863454594441       -6.1359027898889895       -6.1892049900634918     
   8.3682988159145246       -2.2067392730097484       -3.9024569636440325     
   3.1558053906144345       -7.1568821349498721        3.7296901092235677     
   6.4112657604846257       -5.7586365203479115      -0.40232414913687686     
 -0.78967265731392156       -8.6868966541836468       0.71628527314032231     
   5.2506592126566831       -5.1696739547690562       -2.4547347085107893     
   1.2087557904969271       -6.1553603320053538       -3.7204535898310236     
  -2.6881131447654458       -7.7317944361530735      -0.18052629582598062     
  -1.4428313090523655       -8.1118540641999584        4.0918208996635697     
   2.4094403156692299       -6.3424431264081091       -5.3004450275063535     
   2.5884189992820907       -7.0865274734230477       -1.3106598342000348     
   7.6452766811429678       -5.5873800127120168      -0.72755312248846582     
   7.6107893045494990       -3.5959943485324701        3.9058722599111486     
   6.5998921046764636       -5.0918253320079359        4.5568779707364566     
   7.1831444388148133       -4.3037801347923761      -0.87060502090340586     
   8.7686604271787214       -3.4510186240107541       -1.2047206549203424     
   3.6568767959746640       -7.6160868230057606        1.7871979004099241     
   8.7384749147698635       -3.0602153020776406       -2.1268580277348872     
   3.4210284082619311       -6.7071067976441050       -5.7923293580710489     
   2.4220301253031082       -6.7391275549120886        3.0960371299133307     
   8.3084283293236219      -0.89887280785615364       -1.4612846656622560     
   8.0899727062368323E-002  -7.7131667231976646        3.5798698339086572     
   3.9530795927300346       -7.1917082826551040       -4.7788081211811555     
   5.9288559859021452       -6.3609881054930311       0.23354993824286638     
  -1.0647950568580304       -9.3655409723010212       -1.1844519283742863     
   7.6575395622454936       -4.3979942560286966       -3.4331538066992553     
   1.7976329872350736       -5.6969596243315745        1.0214167437743669     
   2.6259102720767560       -5.3523467210634417        6.0355918922237946     
   7.2659501816342251       -3.6344830089921758        2.4907348003020084     
 -0.20256058739237096       -7.6775284774033450        5.5913298726898235     
   3.2579553987064511E-002  -8.5648351418068938       0.15867052895556288     
 -0.13421171940738091       -6.7641362154253297        5.1732536441921901     
 -0.89063453738751874       -9.2888454714456792        1.7816455955180397     
   4.4415868031871684       -4.5162282579579394        6.9145794367360436     
   4.1951807002577963       -4.5477378910105051       -7.1523076625375532     
 -0.72532886797396567       -9.0447221087227838       -2.8116003819704036     
   6.4916227747475057       -6.2769347104230029        2.9373176926079609     
   3.3394063676495107       -5.6394414754612443       -2.7834513477437630     
   4.0056871736155193       -6.6192582084789748       -3.7651416135859916     
   3.4947100499364190       -8.8066652927287379       0.65432594893585094     
   3.2965215628961393       -5.8440019968541908       -3.9041724119505985     
  0.69982075682695388       -7.6449625054180235       -5.3803970655085918     
   3.0286515887368433       -6.9582484813623511      -0.42168437266862135     
   4.4012930650084998       -8.3801886397937153       0.80428324926828987     
   6.4201990506923767       -6.7004837957363428        2.0331583227444407     
   4.6038289242152599       -4.9503765026843833       -5.1922212120214155     
   2.5464164729009755       -9.1126106260584336       0.79305288011684671     
   4.0897029146627171       -7.8553236577556289       -3.4248039640083445     
   7.2611297825591610       -3.1566601471548918       -4.4007841293952339     
   1.7579834098081573       -8.2041617412837020        2.4508990407329634     
   4.3966042909466863       -6.3855416616993921       0.54221410411146165     
   7.1237193921394635       -2.7329110270616899       -1.9435248832027501     
   5.9356409420395480       -4.8247694847666338        5.3114977879801533     
   4.5535521269458554       -4.8325207037959448       -1.7899173074372232     
   2.2490454229535275       -6.6214819404161718       -6.4285724790414234     
   2.8181444507876972       -5.8016680289319487       -6.5505357047931216     
   6.8286648679141928       -5.2219885718614654       -1.1852248079297152     
  0.33425089809851266       -6.1798473871077881        4.4462331033581597     
   2.1516455045712002       -9.2519462229295080      -0.15271328870416620     
 -0.25298361263427060       -8.2605170839162252        2.4687502528540746     
   3.7799602584396936       -5.1275292631112297       -4.4269923639745432     
   3.9505693205982979       -6.8613305439003307        5.1481348012512083     
   1.5983081280816245       -6.2592951844072182        5.6411891924562507     
   3.8995933584783784       -6.1047165834689858        2.3028787543775788     
   7.7343950507892956       -5.2864179129983189        1.5204129037117882     
   3.5631651729284211       -8.7260544426656015       -1.1873963078417675     
   5.4129027681920494       -4.7060139412240769        6.1812443761040834     
   1.1263723852351537       -7.5725805985872761      -0.59047704884732566     
   5.6987443182512303       -4.9006607899583354       0.58421228288079530     
 -0.32928644413025665       -6.6886370980789529       -1.6872882183454301     
  -2.7894354247091169       -9.0738203430858313       0.36849893668816469     
  -2.1697221978272325       -9.1371693092351585       -1.4282952398412814     
   4.9732278134912056       -6.3937605281727521        2.9285124936399272     
   3.8436128055674810       -8.2926910965116480        2.5524889815235103     
   8.2544971923481523       -2.8471342373610162        3.7425786161155403     
  0.93078075325526977       -8.3859604955498384        1.9019524114283632     
   2.9283450177909405       -7.1035207745172304        1.3148930648789534     
   3.5756408875870895       -5.2105147194928536       -1.9116230834047654     
   9.2491898610258811      -0.94999123976454836        1.6621185724772616     
  -7.7066022933599654E-002  -9.4412630973882212       -1.0430359515187992     
   6.7471646506756162       -4.5479094137769467       -2.9829805259715285     
  -1.6502036297621829       -7.4888631669347605       -4.9690980782104406     
   4.4225474863363106       -5.1806652376461768      -0.71711740375497268     
   1.8348200330434068       -6.7744844891200220       -3.2458336255100848     
   2.9982003505723016       -8.7827190111343789       -2.0307040402909227     
   2.2450949935882973       -7.8522962400038967       -4.8529476782374292     
   8.4907532841111664       -3.4936752550783510        1.9271179412471178     
  -1.2222566671805595       -9.4188523197588143       0.18910001140834190     
  -1.7256545622164725       -8.7824664542192785        3.1322405431775850     
   2.7085382926037460       -8.6446265634217312        2.8607969502800299     
 -0.20820489094907335       -7.1345989440785100       -2.9395734532887059     
   8.0947842177724976       -1.6271845237075255       -4.6850186208131444     
   7.2532427346744432       -5.8348996316185771       -1.8814954326717197     
  -3.1275259193456333       -8.9489585840661245      -0.59253589623763259     
   7.7000233064207482       -5.5520095342179285       0.27136065313963137     
  0.63651738628234422       -8.4977403854532803       0.95279956378970065     
   2.4609394027679712       -8.6962717373090985       -2.9255279363568087     
  0.56820517237026025       -7.9302349618085728       -3.1912607512798026     
   3.5719410215396912       -4.5426452832010034        4.6848838322096515     
  -1.4931044718458939       -7.5938632145972642      -0.72675673359979887     
   6.4774519852335528       -4.2736982017945744       0.31744537469727224     
   7.8662887041120308       -3.3227663690385909       0.48335675438184394     
   7.3182223323290652       -1.0279900157469222       -4.8903787991345444     
  -2.0980534749729838       -7.0646356350291253       -1.9516284488632372     
   4.4298551195556719       -5.1794749771702566       0.28420689085673112     
  -1.5939694081093796       -7.4584139478689320       -3.8207169351751773     
   4.3521986743011079       -4.2990373938281232       -6.1053533158996540     
   7.8410263024546563       -4.7075255233696769       -2.4999917272825738     
   4.1030069694427045       -8.3434539611405700       -1.9500190351597775     
   4.2101753505733441       -7.4075971500781934       -2.5874519880561799E-002
   3.1262121735853108       -8.9665154161884573      -0.26170249579770571     
 -0.89739124213626276       -7.4244048093821622        1.9189257434284470     
   8.8001528034275314       -1.0278991027473878        3.1428664493501399     
   8.6191517072414268       -3.9516107781480594      -0.23620275653322570     
   5.4068715380633883       -4.8410535310421121        2.6958578043013453     
[...]
POINT_DATA  500
SCALARS radius float
LOOKUP_TABLE default
  0.50000000000000000     
  0.50000000000000000     
  0.50000000000000000     
  0.50000000000000000     
  0.50000000000000000     
  0.50000000000000000     
  0.50000000000000000     
  0.50000000000000000     
  0.50000000000000000     
  0.50000000000000000     
  0.50000000000000000     
  0.50000000000000000     
  0.50000000000000000     
  0.50000000000000000     
  0.50000000000000000     
  0.50000000000000000     
  0.50000000000000000     
  0.50000000000000000     
  0.50000000000000000     
  0.50000000000000000     
  0.50000000000000000     
  0.50000000000000000     
  0.50000000000000000     
  0.50000000000000000     
  0.50000000000000000     
  0.50000000000000000     
  0.50000000000000000     
  0.50000000000000000     
  0.50000000000000000     
  0.50000000000000000     
  0.50000000000000000     
  0.50000000000000000     
  0.50000000000000000     
  0.50000000000000000     
  0.50000000000000000     
  0.50000000000000000     
  0.50000000000000000     
  0.50000000000000000     
  0.50000000000000000     
  0.50000000000000000     
  0.50000000000000000     
  0.50000000000000000     
  0.50000000000000000     
  0.50000000000000000     
  0.50000000000000000     
  0.50000000000000000     
  0.50000000000000000     
  0.50000000000000000     
  0.50000000000000000     
  0.50000000000000000     
  0.50000000000000000     
  0.50000000000000000     
  0.50000000000000000     
  0.50000000000000000     
  0.50000000000000000     
  0.50000000000000000     
  0.50000000000000000     
  0.50000000000000000     
  0.50000000000000000     
  0.50000000000000000     
  0.50000000000000000     
  0.50000000000000000     
  0.50000000000000000     
  0.50000000000000000     
  0.50000000000000000     
  0.50000000000000000     
  0.50000000000000000     
  0.50000000000000000     
  0.50000000000000000     
  0.50000000000000000     
  0.50000000000000000     
  0.50000000000000000     
  0.50000000000000000     
  0.50000000000000000     
  0.50000000000000000     
  0.50000000000000000     
  0.50000000000000000     
  0.50000000000000000     
  0.50000000000000000     
  0.50000000000000000     
  0.50000000000000000     
  0.50000000000000000     
  0.50000000000000000     
  0.50000000000000000     
  0.50000000000000000     
  0.50000000000000000     
  0.50000000000000000     
  0.50000000000000000     
  0.50000000000000000     
  0.50000000000000000     
  0.50000000000000000     
  0.50000000000000000     
  0.50000000000000000     
  0.50000000000000000     
  0.50000000000000000     
  0.50000000000000000     
  0.50000000000000000     
  0.50000000000000000     
  0.50000000000000000     
  0.50000000000000000     
  0.50000000000000000     
  0.50000000000000000     
  0.50000000000000000     
  0.50000000000000000     
  0.50000000000000000     
  0.50000000000000000     
  0.50000000000000000     
  0.50000000000000000     
  0.50000000000000000     
  0.50000000000000000     
  0.50000000000000000     
  0.50000000000000000     
  0.50000000000000000     
  0.50000000000000000     
  0.50000000000000000     
  0.50000000000000000     
  0.50000000000000000     
  0.50000000000000000     
  0.50000000000000000     
  0.50000000000000000     
  0.50000000000000000     
  0.50000000000000000     
  0.50000000000000000     
  0.50000000000000000     
  0.50000000000000000     
  0.50000000000000000     
  0.50000000000000000     
  0.50000000000000000     
  0.50000000000000000     
  0.50000000000000000     
  0.50000000000000000     
  0.50000000000000000     
  0.50000000000000000     
  0.50000000000000000     
  0.50000000000000000     
  0.50000000000000000     
  0.50000000000000000     
  0.50000000000000000     
  0.50000000000000000     
  0.50000000000000000     
  0.50000000000000000     
  0.50000000000000000     
  0.50000000000000000     
  0.50000000000000000     
  0.50000000000000000     
  0.50000000000000000     
  0.50000000000000000     
  0.50000000000000000     
  0.50000000000000000     
  0.50000000000000000     
  0.50000000000000000     
  0.50000000000000000     
  0.50000000000000000     
  0.50000000000000000     
  0.50000000000000000     
  0.50000000000000000     
  0.50000000000000000     
  0.50000000000000000     
  0.50000000000000000     
  0.50000000000000000     
  0.50000000000000000     
  0.50000000000000000     
  0.50000000000000000     
  0.50000000000000000     
  0.50000000000000000     
  0.50000000000000000     
  0.50000000000000000     
  0.50000000000000000     
  0.50000000000000000     
  0.50000000000000000     
  0.50000000000000000     
  0.50000000000000000     
  0.50000000000000000     
  0.50000000000000000     
  0.50000000000000000     
  0.50000000000000000     
  0.50000000000000000     
  0.50000000000000000     
  0.50000000000000000     
  0.50000000000000000     
  0.50000000000000000     
  0.50000000000000000     
  0.50000000000000000     
  0.50000000000000000     
  0.50000000000000000     
  0.50000000000000000     
  0.50000000000000000     
  0.50000000000000000     
  0.50000000000000000     
  0.50000000000000000     
  0.50000000000000000     
  0.50000000000000000     
  0.50000000000000000     
  0.50000000000000000     
  0.50000000000000000     
  0.50000000000000000     
  0.50000000000000000     
  0.50000000000000000     
  0.50000000000000000     
  0.50000000000000000     
  0.50000000000000000     
  0.50000000000000000     
  0.50000000000000000     
  0.50000000000000000     
  0.50000000000000000     
  0.50000000000000000     
  0.50000000000000000     
  0.50000000000000000     
  0.50000000000000000     
  0.50000000000000000     
  0.50000000000000000     
  0.50000000000000000     
  0.50000000000000000     
  0.50000000000000000     
  0.50000000000000000     
  0.50000000000000000     
  0.50000000000000000     
  0.50000000000000000     
  0.50000000000000000     
  0.50000000000000000     
  0.50000000000000000     
  0.50000000000000000     
  0.50000000000000000     
  0.50000000000000000     
  0.50000000000000000     
  0.50000000000000000     
  0.50000000000000000     
  0.50000000000000000     
  0.50000000000000000     
  0.50000000000000000     
  0.50000000000000000     
  0.50000000000000000     
  0.50000000000000000     
  0.50000000000000000     
  0.50000000000000000     
  0.50000000000000000     
  0.50000000000000000     
  0.50000000000000000     
  0.50000000000000000     
  0.50000000000000000     
  0.50000000000000000     
  0.50000000000000000     
  0.50000000000000000     
  0.50000000000000000     
  0.50000000000000000     
  0.50000000000000000     
  0.50000000000000000     
  0.50000000000000000     
  0.50000000000000000     
  0.50000000000000000     
  0.50000000000000000     
  0.50000000000000000     
  0.50000000000000000     
  0.50000000000000000     
  0.50000000000000000     
  0.50000000000000000     
  0.50000000000000000     
  0.50000000000000000     
  0.50000000000000000     
  0.50000000000000000     
  0.50000000000000000     
  0.50000000000000000     
  0.50000000000000000     
  0.50000000000000000     
  0.50000000000000000     
  0.50000000000000000     
  0.50000000000000000     
  0.50000000000000000     
  0.50000000000000000     
  0.50000000000000000     
  0.50000000000000000     
  0.50000000000000000     
  0.50000000000000000     
  0.50000000000000000     
  0.50000000000000000     
  0.50000000000000000     
  0.50000000000000000     
  0.50000000000000000     
  0.50000000000000000     
  0.50000000000000000     
  0.50000000000000000     
  0.50000000000000000     
  0.50000000000000000     
  0.50000000000000000     
  0.50000000000000000     
  0.50000000000000000     
  0.50000000000000000     
  0.50000000000000000     
  0.50000000000000000     
  0.50000000000000000     
  0.50000000000000000     
  0.50000000000000000     
  0.50000000000000000     
  0.50000000000000000     
  0.50000000000000000     
  0.50000000000000000     
  0.50000000000000000     
  0.50000000000000000     
  0.50000000000000000     
  0.50000000000000000     
  0.50000000000000000     
  0.50000000000000000     
  0.50000000000000000     
  0.50000000000000000     
  0.50000000000000000     
  0.50000000000000000     
  0.50000000000000000     
  0.50000000000000000     
  0.50000000000000000     
  0.50000000000000000     
  0.50000000000000000     
  0.50000000000000000     
  0.50000000000000000     
  0.50000000000000000     
  0.50000000000000000     
  0.50000000000000000     
  0.50000000000000000     
  0.50000000000000000     
  0.50000000000000000     
  0.50000000000000000     
  0.50000000000000000     
  0.50000000000000000     
  0.50000000000000000     
  0.50000000000000000     
  0.50000000000000000     
  0.50000000000000000     
  0.50000000000000000     
  0.50000000000000000     
  0.50000000000000000     
  0.50000000000000000     
  0.50000000000000000     
  0.50000000000000000     
  0.50000000000000000     
  0.50000000000000000     
  0.50000000000000000     
  0.50000000000000000     
  0.50000000000000000     
  0.50000000000000000     
  0.50000000000000000     
  0.50000000000000000     
  0.50000000000000000     
  0.50000000000000000     
  0.50000000000000000     
  0.50000000000000000     
  0.50000000000000000     
  0.50000000000000000     
  0.50000000000000000     
  0.50000000000000000     
  0.50000000000000000     
  0.50000000000000000     
  0.50000000000000000     
  0.50000000000000000     
  0.50000000000000000     
  0.50000000000000000     
  0.50000000000000000     
  0.50000000000000000     
  0.50000000000000000     
  0.50000000000000000     
  0.50000000000000000     
  0.50000000000000000     
  0.50000000000000000     
  0.50000000000000000     
  0.50000000000000000     
  0.50000000000000000     
  0.50000000000000000     
  0.50000000000000000     
  0.50000000000000000     
  0.50000000000000000     
  0.50000000000000000     
  0.50000000000000000     
  0.50000000000000000     
  0.50000000000000000     
  0.50000000000000000     
  0.50000000000000000     
  0.50000000000000000     
  0.50000000000000000     
  0.50000000000000000     
  0.50000000000000000     
  0.50000000000000000     
  0.50000000000000000     
  0.50000000000000000     
  0.50000000000000000     
  0.50000000000000000     
  0.50000000000000000     
  0.50000000000000000     
  0.50000000000000000     
  0.50000000000000000     
  0.50000000000000000     
  0.50000000000000000     
  0.50000000000000000     
  0.50000000000000000     
  0.50000000000000000     
  0.50000000000000000     
  0.50000000000000000     
  0.50000000000000000     
  0.50000000000000000     
  0.50000000000000000     
  0.50000000000000000     
  0.50000000000000000     
  0.50000000000000000     
  0.50000000000000000     
  0.50000000000000000     
  0.50000000000000000     
  0.50000000000000000     
  0.50000000000000000     
  0.50000000000000000     
  0.50000000000000000     
  0.50000000000000000     
  0.50000000000000000     
  0.50000000000000000     
  0.50000000000000000     
  0.50000000000000000     
  0.50000000000000000     
  0.50000000000000000     
  0.50000000000000000     
  0.50000000000000000     
  0.50000000000000000     
  0.50000000000000000     
  0.50000000000000000     
  0.50000000000000000     
  0.50000000000000000     
  0.50000000000000000     
  0.50000000000000000     
  0.50000000000000000     
  0.50000000000000000     
  0.50000000000000000     
  0.50000000000000000     
  0.50000000000000000     
  0.50000000000000000     
  0.50000000000000000     
  0.50000000000000000     
  0.50000000000000000     
  0.50000000000000000     
  0.50000000000000000     
  0.50000000000000000     
  0.50000000000000000     
  0.50000000000000000     
  0.50000000000000000     
  0.50000000000000000     
  0.50000000000000000     
  0.50000000000000000     
  0.50000000000000000     
  0.50000000000000000     
  0.50000000000000000     
  0.50000000000000000     
  0.50000000000000000     
  0.50000000000000000     
  0.50000000000000000     
  0.50000000000000000     
  0.50000000000000000     
  0.50000000000000000     
  0.50000000000000000     
  0.50000000000000000     
  0.50000000000000000     
  0.50000000000000000     
  0.50000000000000000     
  0.50000000000000000     
  0.50000000000000000     
  0.50000000000000000     
  0.50000000000000000     
  0.50000000000000000     
  0.50000000000000000     
  0.50000000000000000     
  0.50000000000000000     
  0.50000000000000000     
  0.50000000000000000     
  0.50000000000000000     
  0.50000000000000000     
  0.50000000000000000     
  0.50000000000000000     
  0.50000000000000000     
  0.50000000000000000     
  0.50000000000000000     
  0.50000000000000000     
  0.50000000000000000     
  0.50000000000000000     
  0.50000000000000000     
  0.50000000000000000     
  0.50000000000000000     
  0.50000000000000000     
  0.50000000000000000     
  0.50000000000000000     
  0.50000000000000000     
  0.50000000000000000     
  0.50000000000000000     
  0.50000000000000000     
  0.50000000000000000     
  0.50000000000000000     
  0.50000000000000000     
  0.50000000000000000     
  0.50000000000000000     
  0.50000000000000000     
  0.50000000000000000     
  0.50000000000000000     
  0.50000000000000000     
  0.50000000000000000     
  0.50000000000000000     
  0.50000000000000000     
  0.50000000000000000     
  0.50000000000000000     
