# vtk DataFile Version 5.1
Data.vtk
ASCII
DATASET UNSTRUCTURED_GRID
 
POINTS 500 float
  -1.7023443346782894       -9.2813921383099789        1.0975798948463007     
   2.6326927805669396       -8.0135384150497213       -1.5664515414164035     
   7.9948314484329517       -5.0046930688993756       -1.1244167249157058     
  -1.2654920039375590       -7.4539372236480217       -1.9430583858367414     
  -1.2433559841879602       -6.8057473771738426       -3.7928279769790265     
   6.0467006655426534       -4.6559704084927667      -0.68300447117878027     
   6.3645966431770633       -5.5359075473488781        2.1467898976038220     
   2.4521150833448568       -7.3859741623356197       0.43347875313176076     
  0.19889567943942507       -7.4507068420509146       -5.0184212376483934     
   3.9609569855826314       -8.5357557739480754       -1.3016493866992001     
  -1.1257750542733436       -6.9096194717109221       -5.3424561814498395     
   7.9054078354323147       -2.5703289495219903       -4.3993681505411022     
   3.4637616589334739       -6.8255551262701797        3.7104604850505054     
   6.5779180181641763       -5.5032734361204438      -0.62694156107123111     
 -0.42922439894658393       -8.5979577970206993       0.47802543531077557     
   4.9572462396221342       -5.2686524154915775       -2.7617311351794411     
  0.75804537365344005       -6.5881348711249146       -3.9363969053427597     
  -3.1508783560985556       -8.0620882614518354      -0.23970914492137177     
 -0.95436282484642077       -8.7324243631361629        3.6175481916864718     
   1.5721741124156128       -6.4731172310299607       -5.4474369043061559     
   2.5474869220090599       -7.0457928824617424       -1.3283169942039890     
   8.4595833208529658       -4.2647366660252075      -0.63617259135696202     
   7.6008471931530579       -3.1875215302942599        4.7209201683294841     
   6.2714520946837649       -4.8792747355255841        5.1960382128650240     
   7.3636834608211856       -4.0826447138664648       -1.2169087654438375     
   9.0368623041872329       -2.0811985700853466       -1.3005396122027209     
   4.0044768796258712       -7.4446796995880629        1.9402749784227076     
   8.7435397346784622       -1.9740273066152099       -2.4451037167510297     
   3.3987469958364742       -6.9424414199560802       -5.5090042889567084     
   2.4982744516150230       -6.5635259989860018        2.9908887072024064     
   6.4382568929439303       -3.3507916936268343       -4.2852866824783960E-002
 -0.18652893956198713       -8.2121213824107198        3.2439842194995432     
   4.7243119654562182       -6.7205036524198807       -4.7696655159242036     
   6.2152915256430630       -5.9353962598332970       0.19878493725886803     
  0.72017460270379641       -9.4152963939275249       -1.0409802295968611     
   8.0664822384513251       -3.3812630186639083       -3.7048131310929753     
  0.76559722644953287       -5.8137703914470515       0.97929473480356954     
  0.93398485370616824       -6.7546358488986629        5.9474250739318286     
   6.5405856757794147       -4.1358917223089628        3.5626410085314122     
   7.9689242411646474E-002  -7.9847583892077436        5.1445225037609319     
  0.40080989313078424       -8.3994355062755659       -4.3455588578882313E-002
  -1.2737079208792512       -7.7232831734547416        5.2886429057394873     
  0.60696264858834792       -9.3691054350614991        1.4498425806334849     
   3.7275014117851062       -4.6005168335505484        7.3595123024578397     
   3.2396616866160510       -5.0508906570780496       -7.3600416065996130     
  0.88838345079545478       -9.0251051945845635       -2.8300225171855380     
   7.4083716682201377       -5.1322498169052961        3.0027439392793758     
   3.1957259529110180       -5.8752993313876036       -2.7766286497877584     
   3.7846487799837476       -6.8075697947971792       -3.6838868644888461     
   5.0682680944089062       -8.0107456552855147       0.62443989138687561     
   2.8706105641556472       -5.9516857714500189       -3.9654601587579354     
   1.0491177864602630       -8.2394576896643272       -4.6109717732059217     
   2.9925306432350776       -7.0995695715881100      -0.37400941403903576     
   5.8735061393622789       -7.4195413271726229       0.67372703820499391     
   7.4766049655460707       -5.4719718751794950        2.0646400834602119     
   3.2838383201320878       -5.9497617739754878       -5.4504579284303807     
   4.1925871310657419       -8.4949577229405762       0.57603533406390650     
   5.0286804555011013       -7.1327956951457026       -3.6610577773463739     
   6.8922872088942864       -3.1082315488494441       -3.9080351182448112     
   2.0033504659842980       -8.0499189147800507        2.2109155815707422     
   4.3248811096291284       -6.4092700473220283       0.52294913617701144     
   6.4777101032621092       -3.4382704848528509       -1.9957818481920215     
   5.7311781690198220       -4.6277107439394856        5.9991876072849717     
   4.2801727437519395       -5.1863217504865187       -1.8756298896381198     
   1.3412377980930386       -7.0351079070228240       -6.2416776210334710     
   2.2851402081174315       -6.7051857444318470       -6.3299456850128824     
   6.9188548850180220       -4.9749559423829535       -1.4045860688386818     
 -0.97390635708315687       -7.0528080169533949        4.5633054802241473     
   3.7851586248189761       -8.7071503257477332      -0.32818357077164328     
 -0.24725440947209523       -8.1967269211825133        2.2460437778812699     
   2.4725962842258986       -5.6008817949036134       -4.8163953385499987     
   4.2885581637179859       -6.6524867461215651        5.2536530512252080     
 -0.11168148026274992       -6.9922621097299764        5.1290250719525128     
   4.0150656601274513       -6.1680475604592004        2.2369126669128985     
   8.4334419813072046       -3.9570205575493369        1.7328134967953843     
   5.1157332703951948       -7.9233364224521186       -1.1267592604409031     
   4.8152761341375125       -4.6018526452880151        6.7741109262123578     
   1.0622035776485983       -7.5428286427575726      -0.68690851561131361     
   5.7810291633341873       -5.0222269634472925       0.50534211149342301     
 -0.68267605846668511       -6.6089161200216813       -1.8948739617047901     
  -1.0566915852539183       -9.4346446065976792       0.34882832604460484     
 -0.29729135900980763       -9.4069072865040990       -1.2917708777392236     
   5.1771711368917908       -6.2325915124732054        2.8862303118097699     
   4.9378183855027009       -7.6916718649313500        2.5678239978902306     
   8.1195414746995862       -2.5112017582635682        4.1917144523257264     
   1.1568352362377237       -8.2974798770213241        1.7388225415564749     
   2.9030171369157816       -7.0832716660448352        1.3841613406296995     
   3.3599081590666819       -5.5792000963182646       -1.8340203860283870     
   9.0431715860471744      -0.17443361230255428        2.7510145081472523     
   1.7214230322831090       -9.2857466304132998       -1.0303895719943361     
   6.3883176180744368       -4.6853668775575210       -3.2980593558973781     
  -2.3446849980008726       -8.2834637052527604       -4.0170593258200480     
   4.3010934407743608       -5.3264079283623067      -0.87503970718947199     
   1.5041339265907929       -6.9125203152421886       -3.2545427655683521     
   4.5865891430686263       -8.0848049078272393       -1.9621502319155000     
   3.0662802813617112       -7.5890789052017231       -4.8222256966308317     
   8.8842269689102196       -2.1434156977939107        2.3219142701299571     
  0.56776285544497729       -9.4790635092116293       0.27404240467392399     
 -0.24740717028361159       -9.1775328278420396        2.4415881318188064     
   4.0653461343101576       -8.1774433818235828        2.6181660088796197     
 -0.67876474970938838       -7.0700779651464716       -3.0091187918047737     
   7.0781471127791251       -2.6382555276931705       -5.2601821506293227     
   8.1397720253046586       -4.4078379790858291       -2.1224690519187868     
  -1.8224285193718555       -9.3113049473343175      -0.47707163665466912     
   8.4611565694906901       -4.2960725144449237       0.42654434526492419     
   1.0858724621059754       -8.4420721624113337       0.70865000240130216     
   3.9537040111221198       -8.1742025484863614       -2.7419847443282039     
  0.97242135265941410       -8.1365070758078275       -3.2810890280809049     
   2.5737009803717141       -5.6703273907018268        3.4384651087498534     
 -0.79443957189478398       -7.7486146037010464       -1.0693653230592153     
   6.4276731095077615       -4.3256545919358915       0.18027700063489036     
   7.9192987102504011       -2.9859829039417747       0.60966093639436736     
   4.3062561095437415       -3.5884031589355536       -6.0556578745759424     
  -2.5905965259714545       -7.8986456895607979       -2.0741374926807419     
   3.9472913848787861       -5.5621200292411954       0.10592582374358214     
  -2.4024644864693383       -8.6899544152127302       -2.9936907528845698     
   2.9909267299727151       -5.0535644037117642       -6.3871589143340959     
   8.4433753736134136       -3.5447245655532131       -2.5267322755887762     
   5.4163300528678882       -7.5277171526377842       -2.0009832507667964     
   4.7121663594906700       -7.2393572932845647        9.6807101528753825E-002
   4.6781842698980913       -8.2575898686632190      -0.27842659522854324     
  -1.1861715394430195       -7.7398016295650267        1.8593790094303235     
   7.8522846507366904       -1.5936723078627060        4.4897992464542060     
   9.1242615171065644       -2.5584993147353119       -5.2306812893377477E-002
   5.5664835141958324       -4.9083557854134554        2.3048046295924602     
[...]
POINT_DATA  500
SCALARS radius float
LOOKUP_TABLE default
  0.50000000000000000     
  0.50000000000000000     
  0.50000000000000000     
  0.50000000000000000     
  0.50000000000000000     
  0.50000000000000000     
  0.50000000000000000     
  0.50000000000000000     
  0.50000000000000000     
  0.50000000000000000     
  0.50000000000000000     
  0.50000000000000000     
  0.50000000000000000     
  0.50000000000000000     
  0.50000000000000000     
  0.50000000000000000     
  0.50000000000000000     
  0.50000000000000000     
  0.50000000000000000     
  0.50000000000000000     
  0.50000000000000000     
  0.50000000000000000     
  0.50000000000000000     
  0.50000000000000000     
  0.50000000000000000     
  0.50000000000000000     
  0.50000000000000000     
  0.50000000000000000     
  0.50000000000000000     
  0.50000000000000000     
  0.50000000000000000     
  0.50000000000000000     
  0.50000000000000000     
  0.50000000000000000     
  0.50000000000000000     
  0.50000000000000000     
  0.50000000000000000     
  0.50000000000000000     
  0.50000000000000000     
  0.50000000000000000     
  0.50000000000000000     
  0.50000000000000000     
  0.50000000000000000     
  0.50000000000000000     
  0.50000000000000000     
  0.50000000000000000     
  0.50000000000000000     
  0.50000000000000000     
  0.50000000000000000     
  0.50000000000000000     
  0.50000000000000000     
  0.50000000000000000     
  0.50000000000000000     
  0.50000000000000000     
  0.50000000000000000     
  0.50000000000000000     
  0.50000000000000000     
  0.50000000000000000     
  0.50000000000000000     
  0.50000000000000000     
  0.50000000000000000     
  0.50000000000000000     
  0.50000000000000000     
  0.50000000000000000     
  0.50000000000000000     
  0.50000000000000000     
  0.50000000000000000     
  0.50000000000000000     
  0.50000000000000000     
  0.50000000000000000     
  0.50000000000000000     
  0.50000000000000000     
  0.50000000000000000     
  0.50000000000000000     
  0.50000000000000000     
  0.50000000000000000     
  0.50000000000000000     
  0.50000000000000000     
  0.50000000000000000     
  0.50000000000000000     
  0.50000000000000000     
  0.50000000000000000     
  0.50000000000000000     
  0.50000000000000000     
  0.50000000000000000     
  0.50000000000000000     
  0.50000000000000000     
  0.50000000000000000     
  0.50000000000000000     
  0.50000000000000000     
  0.50000000000000000     
  0.50000000000000000     
  0.50000000000000000     
  0.50000000000000000     
  0.50000000000000000     
  0.50000000000000000     
  0.50000000000000000     
  0.50000000000000000     
  0.50000000000000000     
  0.50000000000000000     
  0.50000000000000000     
  0.50000000000000000     
  0.50000000000000000     
  0.50000000000000000     
  0.50000000000000000     
  0.50000000000000000     
  0.50000000000000000     
  0.50000000000000000     
  0.50000000000000000     
  0.50000000000000000     
  0.50000000000000000     
  0.50000000000000000     
  0.50000000000000000     
  0.50000000000000000     
  0.50000000000000000     
  0.50000000000000000     
  0.50000000000000000     
  0.50000000000000000     
  0.50000000000000000     
  0.50000000000000000     
  0.50000000000000000     
  0.50000000000000000     
  0.50000000000000000     
  0.50000000000000000     
  0.50000000000000000     
  0.50000000000000000     
  0.50000000000000000     
  0.50000000000000000     
  0.50000000000000000     
  0.50000000000000000     
  0.50000000000000000     
  0.50000000000000000     
  0.50000000000000000     
  0.50000000000000000     
  0.50000000000000000     
  0.50000000000000000     
  0.50000000000000000     
  0.50000000000000000     
  0.50000000000000000     
  0.50000000000000000     
  0.50000000000000000     
  0.50000000000000000     
  0.50000000000000000     
  0.50000000000000000     
  0.50000000000000000     
  0.50000000000000000     
  0.50000000000000000     
  0.50000000000000000     
  0.50000000000000000     
  0.50000000000000000     
  0.50000000000000000     
  0.50000000000000000     
  0.50000000000000000     
  0.50000000000000000     
  0.50000000000000000     
  0.50000000000000000     
  0.50000000000000000     
  0.50000000000000000     
  0.50000000000000000     
  0.50000000000000000     
  0.50000000000000000     
  0.50000000000000000     
  0.50000000000000000     
  0.50000000000000000     
  0.50000000000000000     
  0.50000000000000000     
  0.50000000000000000     
  0.50000000000000000     
  0.50000000000000000     
  0.50000000000000000     
  0.50000000000000000     
  0.50000000000000000     
  0.50000000000000000     
  0.50000000000000000     
  0.50000000000000000     
  0.50000000000000000     
  0.50000000000000000     
  0.50000000000000000     
  0.50000000000000000     
  0.50000000000000000     
  0.50000000000000000     
  0.50000000000000000     
  0.50000000000000000     
  0.50000000000000000     
  0.50000000000000000     
  0.50000000000000000     
  0.50000000000000000     
  0.50000000000000000     
  0.50000000000000000     
  0.50000000000000000     
  0.50000000000000000     
  0.50000000000000000     
  0.50000000000000000     
  0.50000000000000000     
  0.50000000000000000     
  0.50000000000000000     
  0.50000000000000000     
  0.50000000000000000     
  0.50000000000000000     
  0.50000000000000000     
  0.50000000000000000     
  0.50000000000000000     
  0.50000000000000000     
  0.50000000000000000     
  0.50000000000000000     
  0.50000000000000000     
  0.50000000000000000     
  0.50000000000000000     
  0.50000000000000000     
  0.50000000000000000     
  0.50000000000000000     
  0.50000000000000000     
  0.50000000000000000     
  0.50000000000000000     
  0.50000000000000000     
  0.50000000000000000     
  0.50000000000000000     
  0.50000000000000000     
  0.50000000000000000     
  0.50000000000000000     
  0.50000000000000000     
  0.50000000000000000     
  0.50000000000000000     
  0.50000000000000000     
  0.50000000000000000     
  0.50000000000000000     
  0.50000000000000000     
  0.50000000000000000     
  0.50000000000000000     
  0.50000000000000000     
  0.50000000000000000     
  0.50000000000000000     
  0.50000000000000000     
  0.50000000000000000     
  0.50000000000000000     
  0.50000000000000000     
  0.50000000000000000     
  0.50000000000000000     
  0.50000000000000000     
  0.50000000000000000     
  0.50000000000000000     
  0.50000000000000000     
  0.50000000000000000     
  0.50000000000000000     
  0.50000000000000000     
  0.50000000000000000     
  0.50000000000000000     
  0.50000000000000000     
  0.50000000000000000     
  0.50000000000000000     
  0.50000000000000000     
  0.50000000000000000     
  0.50000000000000000     
  0.50000000000000000     
  0.50000000000000000     
  0.50000000000000000     
  0.50000000000000000     
  0.50000000000000000     
  0.50000000000000000     
  0.50000000000000000     
  0.50000000000000000     
  0.50000000000000000     
  0.50000000000000000     
  0.50000000000000000     
  0.50000000000000000     
  0.50000000000000000     
  0.50000000000000000     
  0.50000000000000000     
  0.50000000000000000     
  0.50000000000000000     
  0.50000000000000000     
  0.50000000000000000     
  0.50000000000000000     
  0.50000000000000000     
  0.50000000000000000     
  0.50000000000000000     
  0.50000000000000000     
  0.50000000000000000     
  0.50000000000000000     
  0.50000000000000000     
  0.50000000000000000     
  0.50000000000000000     
  0.50000000000000000     
  0.50000000000000000     
  0.50000000000000000     
  0.50000000000000000     
  0.50000000000000000     
  0.50000000000000000     
  0.50000000000000000     
  0.50000000000000000     
  0.50000000000000000     
  0.50000000000000000     
  0.50000000000000000     
  0.50000000000000000     
  0.50000000000000000     
  0.50000000000000000     
  0.50000000000000000     
  0.50000000000000000     
  0.50000000000000000     
  0.50000000000000000     
  0.50000000000000000     
  0.50000000000000000     
  0.50000000000000000     
  0.50000000000000000     
  0.50000000000000000     
  0.50000000000000000     
  0.50000000000000000     
  0.50000000000000000     
  0.50000000000000000     
  0.50000000000000000     
  0.50000000000000000     
  0.50000000000000000     
  0.50000000000000000     
  0.50000000000000000     
  0.50000000000000000     
  0.50000000000000000     
  0.50000000000000000     
  0.50000000000000000     
  0.50000000000000000     
  0.50000000000000000     
  0.50000000000000000     
  0.50000000000000000     
  0.50000000000000000     
  0.50000000000000000     
  0.50000000000000000     
  0.50000000000000000     
  0.50000000000000000     
  0.50000000000000000     
  0.50000000000000000     
  0.50000000000000000     
  0.50000000000000000     
  0.50000000000000000     
  0.50000000000000000     
  0.50000000000000000     
  0.50000000000000000     
  0.50000000000000000     
  0.50000000000000000     
  0.50000000000000000     
  0.50000000000000000     
  0.50000000000000000     
  0.50000000000000000     
  0.50000000000000000     
  0.50000000000000000     
  0.50000000000000000     
  0.50000000000000000     
  0.50000000000000000     
  0.50000000000000000     
  0.50000000000000000     
  0.50000000000000000     
  0.50000000000000000     
  0.50000000000000000     
  0.50000000000000000     
  0.50000000000000000     
  0.50000000000000000     
  0.50000000000000000     
  0.50000000000000000     
  0.50000000000000000     
  0.50000000000000000     
  0.50000000000000000     
  0.50000000000000000     
  0.50000000000000000     
  0.50000000000000000     
  0.50000000000000000     
  0.50000000000000000     
  0.50000000000000000     
  0.50000000000000000     
  0.50000000000000000     
  0.50000000000000000     
  0.50000000000000000     
  0.50000000000000000     
  0.50000000000000000     
  0.50000000000000000     
  0.50000000000000000     
  0.50000000000000000     
  0.50000000000000000     
  0.50000000000000000     
  0.50000000000000000     
  0.50000000000000000     
  0.50000000000000000     
  0.50000000000000000     
  0.50000000000000000     
  0.50000000000000000     
  0.50000000000000000     
  0.50000000000000000     
  0.50000000000000000     
  0.50000000000000000     
  0.50000000000000000     
  0.50000000000000000     
  0.50000000000000000     
  0.50000000000000000     
  0.50000000000000000     
  0.50000000000000000     
  0.50000000000000000     
  0.50000000000000000     
  0.50000000000000000     
  0.50000000000000000     
  0.50000000000000000     
  0.50000000000000000     
  0.50000000000000000     
  0.50000000000000000     
  0.50000000000000000     
  0.50000000000000000     
  0.50000000000000000     
  0.50000000000000000     
  0.50000000000000000     
  0.50000000000000000     
  0.50000000000000000     
  0.50000000000000000     
  0.50000000000000000     
  0.50000000000000000     
  0.50000000000000000     
  0.50000000000000000     
  0.50000000000000000     
  0.50000000000000000     
  0.50000000000000000     
  0.50000000000000000     
  0.50000000000000000     
  0.50000000000000000     
  0.50000000000000000     
  0.50000000000000000     
  0.50000000000000000     
  0.50000000000000000     
  0.50000000000000000     
  0.50000000000000000     
  0.50000000000000000     
  0.50000000000000000     
  0.50000000000000000     
  0.50000000000000000     
  0.50000000000000000     
  0.50000000000000000     
  0.50000000000000000     
  0.50000000000000000     
  0.50000000000000000     
  0.50000000000000000     
  0.50000000000000000     
  0.50000000000000000     
  0.50000000000000000     
  0.50000000000000000     
  0.50000000000000000     
  0.50000000000000000     
  0.50000000000000000     
  0.50000000000000000     
  0.50000000000000000     
  0.50000000000000000     
  0.50000000000000000     
  0.50000000000000000     
  0.50000000000000000     
  0.50000000000000000     
  0.50000000000000000     
  0.50000000000000000     
  0.50000000000000000     
  0.50000000000000000     
  0.50000000000000000     
  0.50000000000000000     
  0.50000000000000000     
  0.50000000000000000     
  0.50000000000000000     
  0.50000000000000000     
  0.50000000000000000     
  0.50000000000000000     
  0.50000000000000000     
  0.50000000000000000     
  0.50000000000000000     
  0.50000000000000000     
  0.50000000000000000     
  0.50000000000000000     
  0.50000000000000000     
  0.50000000000000000     
  0.50000000000000000     
  0.50000000000000000     
  0.50000000000000000     
  0.50000000000000000     
  0.50000000000000000     
  0.50000000000000000     
  0.50000000000000000     
  0.50000000000000000     
  0.50000000000000000     
  0.50000000000000000     
  0.50000000000000000     
  0.50000000000000000     
  0.50000000000000000     
  0.50000000000000000     
  0.50000000000000000     
  0.50000000000000000     
  0.50000000000000000     
  0.50000000000000000     
  0.50000000000000000     
  0.50000000000000000     
  0.50000000000000000     
  0.50000000000000000     
  0.50000000000000000     
  0.50000000000000000     
  0.50000000000000000     
  0.50000000000000000     
  0.50000000000000000     
  0.50000000000000000     
  0.50000000000000000     
  0.50000000000000000     
  0.50000000000000000     
  0.50000000000000000     
