# vtk DataFile Version 5.1
Data.vtk
ASCII
DATASET UNSTRUCTURED_GRID
 
POINTS 500 float
   2.0745388517306056       -5.7469514252324565        2.6432733698884641     
  0.13632998443645591       -8.1706971933459247       -2.3515986956289621     
  -2.5556686593086857       -9.1086825417537618      -0.86621384335629281     
  0.66857194300512346       -7.2941933674404860       -2.3740366585636812     
   4.4368709702213769       -5.0366681140564928       -3.6132578293826247     
   6.7177989841990069       -6.5161428531733581       -1.5709549230330091     
   5.0367216032394122       -6.4066919463173937        2.8618825606858844     
   3.4993612250905253       -6.8137359786604899       0.45943229114159628     
   6.3644604306567478       -3.5936524141729707       -3.5559368194528314     
  -2.0032009716077308       -8.1009249500516400       -2.0342428926112199     
   8.7980844931862165      -0.69949995922431407       -3.2977530097396355     
   4.0170807831031805       -8.3039056928646993       -2.2704885431655781     
   4.4365662087925450       -6.3700317607024690        3.6652768502661770     
   3.9172820792539933       -7.6421554139274335        8.6673514421667472E-002
  -1.7600027302527839       -8.3488652001840400       0.58177092666427954     
   6.8088019302994667       -2.5574640518154230       -2.1667794508858016     
   7.4837009050401964      -0.83605865300195858       -3.9675771370689779     
   7.9456553876356661       -1.0799404855405152        2.2720545795161642     
   2.5177041175243526       -6.4936559675239529        4.9630777809576481     
   5.3496007822851865       -4.9788736313510116       -4.2647369396001746     
   3.7288524485356138       -6.5564280142671443       -1.3759818606866758     
  -1.3240481755009248       -9.4064226622361815       0.13068142044589282     
   2.6656447464366755       -8.5399145543209656        3.1957788079786202     
   2.3735299138138490       -7.2911945503197177        3.6980655465353323     
   5.9158356289609948       -6.0919894382685325      -0.76152627486733115     
   1.4553409054252124       -9.3235172490026308       -1.0952680968963322     
   1.6901613777804427       -8.3473535097984097        1.8223340191273376     
   2.0197666684027147       -9.0306709065575568       -2.1488640401802535     
   2.9834270808456993       -6.0795517766312690       -6.6618287388867952     
   5.1474187972857210       -4.6771209868742254        2.8180237854134718     
   7.3780095362028124       -5.8632488373162301       -1.1987258670655188     
   4.4320115068673305       -4.8648518901077562        3.8057109800703905     
   1.8613879835630638       -6.7220289252638841       -6.4495735119898274     
   4.2566394107078649       -7.4599271550689510        1.0095939736724913     
  0.47384091784588095       -6.3964874763321937       -1.9788043236326784     
  0.52259334273090141       -8.8708572511946002       -3.3592974269201861     
   9.3434395472578853       -1.6903699292541272       0.24499036073519484     
   5.0293745089084370       -5.2755738412890079        6.0922028385771094     
   7.7521250376634718       -3.3519967763403882       0.69437846101421397     
   2.9047959671431567       -6.3294963234120374        6.4567417278377821     
 -0.53359720115986353       -7.8768924419672075       0.89528563745657730     
   8.5750321310641162       -1.5384397777081846        3.7389497453650207     
   5.2719645816801215       -3.7567891047460988        5.9978425972911644     
   7.3243237262708369       -4.9165998768424295        3.5134155168658059     
   5.8414310161003806       -4.6492792533195324       -5.8749791842545909     
   6.5915776178436163       -1.7793621534405861       -6.3822996890766905     
  -1.5600322606713795       -8.5558287641817277        3.8217546270779916     
   9.1797244913511111       -1.7372458277714378       -1.6312853583873845     
   5.3900142086494842       -5.6560619208815170       -3.5274516512124769     
  -1.4758125634174613       -7.4261629408316203       0.84343082678626213     
   8.7538597711972592       -3.5968586527081357      -0.79303009154637594     
   5.6779273980712066       -2.7694223151526205       -5.1555445737148045     
   4.2018331982515216       -6.4654616196937091      -0.37255768609951173     
  -1.3526500894840143       -8.1260600530325426        2.4319521219522127     
 -0.45758217807087692       -7.9980056132461677        2.9213520441823864     
   7.2172717426889283       -4.5252317773707729       -4.1791077717811929     
 -0.62000642751097967       -7.0135170114090366        2.8438683353589922     
  0.34590730394446756       -7.0430659751732154       -6.3578616352515045     
   4.5657986285168954       -7.2670109291809597       -4.0724106117576477     
  0.48039195220280706       -7.9738233342664815        3.2991056934260361     
   5.3508795199666226       -5.7503126652977903       0.63302900166161957     
   4.9369747484705844       -7.7126011212391505       -2.5233989298272292     
   2.8220815822693375       -8.1012425077502375        4.0808670790250519     
   8.3815440469141542       -4.4518201966928137      -0.42799699681442882     
   3.4524568161423255       -6.5693240434333280       -5.9199622870716961     
   4.3369841301031347       -5.9651259578237745       -5.9858734822086017     
   5.2137312419720390       -6.8038819360300140      -0.78174163813320008     
   7.6710097701863962       -2.8959485914526963        4.7975412012020620     
  0.37067484968698106       -6.1811392746603708      -0.43468401637669524     
  0.33250753897889873       -7.2829613373730417        2.2995312767051082     
   6.6234153993351477       -4.5249723285367169       -4.9905658197934644     
   1.9806779508829020       -6.7112012824229916        6.4257080943629967     
   7.3018560998015962       -4.2965977011705823        4.2983186101633208     
   5.7839925586312191       -4.1968663530877564        1.6385656917444709     
 -0.41853040536800729       -9.1684372090863668        2.4524856866499354     
  -1.4475828664937573       -7.4162352446684263       -2.5503241439601196     
   5.2827250089395008       -6.4794207656521161        4.5114992274646912     
   2.3776272243949217       -7.2318935707466165      -0.52844948946349080     
   8.7200829354345135       -3.7598773702112953       0.21156479837371023     
   3.4989202113574684       -5.6128781799303207       -1.6315312605961345     
   1.0095282663140623       -5.6678860367289605       0.14010519604816993     
  -1.2583325674833579       -7.5243112162499806       -1.5581694016770784     
   4.1228250308261529       -6.9017002936516594        2.8785438094913691     
 -0.43933488450229247       -6.9469830966615689        5.0319524521611267     
   3.3340227147670687       -8.5691109488735933        2.3873109436103181     
   1.4853480142781204       -7.3961073476063595        2.1074056622123525     
   3.9209988105464566       -6.5521395172013550        1.3277254238806155     
   7.7062382700235794       -5.0387005270378316       -2.3313319275106656     
   4.3765186414692838       -8.4046208700433347       0.67668044457180343     
 -0.23163491436576239       -6.8273755157009202       -3.7480375096760743     
   6.5544318131318420       -5.1234488171332480       -2.5445396482483233     
   8.6097769587639714       -3.3680525319342287       -2.0782649661374490     
   9.4122127108083813       -1.0507282891310021      -0.64277377931424706     
   6.4206173805040931       -4.1482387149114341       -2.7207762689288693     
 -0.76661464922241596       -7.5221262885226299       -5.7514711223135624     
   7.6688211854760855       -2.6825279442964520       -4.7330638835443537     
   2.0821235805751566       -9.1631651298767611        1.3958179173743908     
  -1.3756269609470551       -7.6890486585727835      -0.16442177471805269     
   3.9375423578911564       -4.8870220861788685        7.1310426919471759     
   1.3205156168215926       -6.1367723751535816        5.7354684179081641     
   4.0631087005291819       -5.8265886778126239       -3.1254911935334140     
   5.3660611631371617       -7.1429932628278268       -3.2298076585460240     
  -2.3580739255941459       -9.0160834868234421       -1.8428698630426843     
   6.6528245643263664E-002  -6.8046658115279781       -1.1618520799244170     
 -0.69147516540989185       -9.3644390847354071        1.4411297813463426     
   9.5897747730107466E-002  -7.2267534084652780        1.3206849195565664     
  0.94535841776388507       -6.4423538191667085       -6.8897944931055779     
   3.0293336989270325       -6.8608020757256636       -4.3262566557418936     
   9.1946865096432528       -2.0940758161852147        1.1486256376702093     
   2.0165136266098309       -6.4097010608633651      -0.97430776736629032     
   7.2695620362224185       -6.1032309922928949      -0.23399283171030263     
   6.9160548275301075       -5.0421007711180934       0.26985697317032953     
   6.4239777676477710       -6.5092059908155333       -2.5268712886132345     
   2.5779143140289515       -6.0106976178601910       -1.8323858103770576     
   8.2937155004353578       -4.5952912342963321       0.56210614018760996     
   3.7519869599315570       -5.3507473046554610       -4.3637447895083676     
   7.3330951331014518       -5.0347379969906028       -3.3250265511043304     
 -0.92893930416414172       -9.2824567300181133       -1.7953453510497313     
 -0.50588253020737250       -7.2227725538586443       -4.6391546256041201     
   2.0333152159482584       -8.3527287622574526       -3.3278799389019793E-002
  -1.3388173929280314       -6.7296277168962879       0.12202916493559533     
   1.5510402243719257       -6.4562753779904156        1.7699536018879292     
   4.8313179555646544       -7.9897709185604437        1.7525784248158167     
  0.57597469904133014       -9.4370394706446508      -0.61104732667871053     
   7.1702961378486769       -6.1213215085429020        1.1051228127219010     
[...]
POINT_DATA  500
SCALARS radius float
LOOKUP_TABLE default
  0.50000000000000000     
  0.50000000000000000     
  0.50000000000000000     
  0.50000000000000000     
  0.50000000000000000     
  0.50000000000000000     
  0.50000000000000000     
  0.50000000000000000     
  0.50000000000000000     
  0.50000000000000000     
  0.50000000000000000     
  0.50000000000000000     
  0.50000000000000000     
  0.50000000000000000     
  0.50000000000000000     
  0.50000000000000000     
  0.50000000000000000     
  0.50000000000000000     
  0.50000000000000000     
  0.50000000000000000     
  0.50000000000000000     
  0.50000000000000000     
  0.50000000000000000     
  0.50000000000000000     
  0.50000000000000000     
  0.50000000000000000     
  0.50000000000000000     
  0.50000000000000000     
  0.50000000000000000     
  0.50000000000000000     
  0.50000000000000000     
  0.50000000000000000     
  0.50000000000000000     
  0.50000000000000000     
  0.50000000000000000     
  0.50000000000000000     
  0.50000000000000000     
  0.50000000000000000     
  0.50000000000000000     
  0.50000000000000000     
  0.50000000000000000     
  0.50000000000000000     
  0.50000000000000000     
  0.50000000000000000     
  0.50000000000000000     
  0.50000000000000000     
  0.50000000000000000     
  0.50000000000000000     
  0.50000000000000000     
  0.50000000000000000     
  0.50000000000000000     
  0.50000000000000000     
  0.50000000000000000     
  0.50000000000000000     
  0.50000000000000000     
  0.50000000000000000     
  0.50000000000000000     
  0.50000000000000000     
  0.50000000000000000     
  0.50000000000000000     
  0.50000000000000000     
  0.50000000000000000     
  0.50000000000000000     
  0.50000000000000000     
  0.50000000000000000     
  0.50000000000000000     
  0.50000000000000000     
  0.50000000000000000     
  0.50000000000000000     
  0.50000000000000000     
  0.50000000000000000     
  0.50000000000000000     
  0.50000000000000000     
  0.50000000000000000     
  0.50000000000000000     
  0.50000000000000000     
  0.50000000000000000     
  0.50000000000000000     
  0.50000000000000000     
  0.50000000000000000     
  0.50000000000000000     
  0.50000000000000000     
  0.50000000000000000     
  0.50000000000000000     
  0.50000000000000000     
  0.50000000000000000     
  0.50000000000000000     
  0.50000000000000000     
  0.50000000000000000     
  0.50000000000000000     
  0.50000000000000000     
  0.50000000000000000     
  0.50000000000000000     
  0.50000000000000000     
  0.50000000000000000     
  0.50000000000000000     
  0.50000000000000000     
  0.50000000000000000     
  0.50000000000000000     
  0.50000000000000000     
  0.50000000000000000     
  0.50000000000000000     
  0.50000000000000000     
  0.50000000000000000     
  0.50000000000000000     
  0.50000000000000000     
  0.50000000000000000     
  0.50000000000000000     
  0.50000000000000000     
  0.50000000000000000     
  0.50000000000000000     
  0.50000000000000000     
  0.50000000000000000     
  0.50000000000000000     
  0.50000000000000000     
  0.50000000000000000     
  0.50000000000000000     
  0.50000000000000000     
  0.50000000000000000     
  0.50000000000000000     
  0.50000000000000000     
  0.50000000000000000     
  0.50000000000000000     
  0.50000000000000000     
  0.50000000000000000     
  0.50000000000000000     
  0.50000000000000000     
  0.50000000000000000     
  0.50000000000000000     
  0.50000000000000000     
  0.50000000000000000     
  0.50000000000000000     
  0.50000000000000000     
  0.50000000000000000     
  0.50000000000000000     
  0.50000000000000000     
  0.50000000000000000     
  0.50000000000000000     
  0.50000000000000000     
  0.50000000000000000     
  0.50000000000000000     
  0.50000000000000000     
  0.50000000000000000     
  0.50000000000000000     
  0.50000000000000000     
  0.50000000000000000     
  0.50000000000000000     
  0.50000000000000000     
  0.50000000000000000     
  0.50000000000000000     
  0.50000000000000000     
  0.50000000000000000     
  0.50000000000000000     
  0.50000000000000000     
  0.50000000000000000     
  0.50000000000000000     
  0.50000000000000000     
  0.50000000000000000     
  0.50000000000000000     
  0.50000000000000000     
  0.50000000000000000     
  0.50000000000000000     
  0.50000000000000000     
  0.50000000000000000     
  0.50000000000000000     
  0.50000000000000000     
  0.50000000000000000     
  0.50000000000000000     
  0.50000000000000000     
  0.50000000000000000     
  0.50000000000000000     
  0.50000000000000000     
  0.50000000000000000     
  0.50000000000000000     
  0.50000000000000000     
  0.50000000000000000     
  0.50000000000000000     
  0.50000000000000000     
  0.50000000000000000     
  0.50000000000000000     
  0.50000000000000000     
  0.50000000000000000     
  0.50000000000000000     
  0.50000000000000000     
  0.50000000000000000     
  0.50000000000000000     
  0.50000000000000000     
  0.50000000000000000     
  0.50000000000000000     
  0.50000000000000000     
  0.50000000000000000     
  0.50000000000000000     
  0.50000000000000000     
  0.50000000000000000     
  0.50000000000000000     
  0.50000000000000000     
  0.50000000000000000     
  0.50000000000000000     
  0.50000000000000000     
  0.50000000000000000     
  0.50000000000000000     
  0.50000000000000000     
  0.50000000000000000     
  0.50000000000000000     
  0.50000000000000000     
  0.50000000000000000     
  0.50000000000000000     
  0.50000000000000000     
  0.50000000000000000     
  0.50000000000000000     
  0.50000000000000000     
  0.50000000000000000     
  0.50000000000000000     
  0.50000000000000000     
  0.50000000000000000     
  0.50000000000000000     
  0.50000000000000000     
  0.50000000000000000     
  0.50000000000000000     
  0.50000000000000000     
  0.50000000000000000     
  0.50000000000000000     
  0.50000000000000000     
  0.50000000000000000     
  0.50000000000000000     
  0.50000000000000000     
  0.50000000000000000     
  0.50000000000000000     
  0.50000000000000000     
  0.50000000000000000     
  0.50000000000000000     
  0.50000000000000000     
  0.50000000000000000     
  0.50000000000000000     
  0.50000000000000000     
  0.50000000000000000     
  0.50000000000000000     
  0.50000000000000000     
  0.50000000000000000     
  0.50000000000000000     
  0.50000000000000000     
  0.50000000000000000     
  0.50000000000000000     
  0.50000000000000000     
  0.50000000000000000     
  0.50000000000000000     
  0.50000000000000000     
  0.50000000000000000     
  0.50000000000000000     
  0.50000000000000000     
  0.50000000000000000     
  0.50000000000000000     
  0.50000000000000000     
  0.50000000000000000     
  0.50000000000000000     
  0.50000000000000000     
  0.50000000000000000     
  0.50000000000000000     
  0.50000000000000000     
  0.50000000000000000     
  0.50000000000000000     
  0.50000000000000000     
  0.50000000000000000     
  0.50000000000000000     
  0.50000000000000000     
  0.50000000000000000     
  0.50000000000000000     
  0.50000000000000000     
  0.50000000000000000     
  0.50000000000000000     
  0.50000000000000000     
  0.50000000000000000     
  0.50000000000000000     
  0.50000000000000000     
  0.50000000000000000     
  0.50000000000000000     
  0.50000000000000000     
  0.50000000000000000     
  0.50000000000000000     
  0.50000000000000000     
  0.50000000000000000     
  0.50000000000000000     
  0.50000000000000000     
  0.50000000000000000     
  0.50000000000000000     
  0.50000000000000000     
  0.50000000000000000     
  0.50000000000000000     
  0.50000000000000000     
  0.50000000000000000     
  0.50000000000000000     
  0.50000000000000000     
  0.50000000000000000     
  0.50000000000000000     
  0.50000000000000000     
  0.50000000000000000     
  0.50000000000000000     
  0.50000000000000000     
  0.50000000000000000     
  0.50000000000000000     
  0.50000000000000000     
  0.50000000000000000     
  0.50000000000000000     
  0.50000000000000000     
  0.50000000000000000     
  0.50000000000000000     
  0.50000000000000000     
  0.50000000000000000     
  0.50000000000000000     
  0.50000000000000000     
  0.50000000000000000     
  0.50000000000000000     
  0.50000000000000000     
  0.50000000000000000     
  0.50000000000000000     
  0.50000000000000000     
  0.50000000000000000     
  0.50000000000000000     
  0.50000000000000000     
  0.50000000000000000     
  0.50000000000000000     
  0.50000000000000000     
  0.50000000000000000     
  0.50000000000000000     
  0.50000000000000000     
  0.50000000000000000     
  0.50000000000000000     
  0.50000000000000000     
  0.50000000000000000     
  0.50000000000000000     
  0.50000000000000000     
  0.50000000000000000     
  0.50000000000000000     
  0.50000000000000000     
  0.50000000000000000     
  0.50000000000000000     
  0.50000000000000000     
  0.50000000000000000     
  0.50000000000000000     
  0.50000000000000000     
  0.50000000000000000     
  0.50000000000000000     
  0.50000000000000000     
  0.50000000000000000     
  0.50000000000000000     
  0.50000000000000000     
  0.50000000000000000     
  0.50000000000000000     
  0.50000000000000000     
  0.50000000000000000     
  0.50000000000000000     
  0.50000000000000000     
  0.50000000000000000     
  0.50000000000000000     
  0.50000000000000000     
  0.50000000000000000     
  0.50000000000000000     
  0.50000000000000000     
  0.50000000000000000     
  0.50000000000000000     
  0.50000000000000000     
  0.50000000000000000     
  0.50000000000000000     
  0.50000000000000000     
  0.50000000000000000     
  0.50000000000000000     
  0.50000000000000000     
  0.50000000000000000     
  0.50000000000000000     
  0.50000000000000000     
  0.50000000000000000     
  0.50000000000000000     
  0.50000000000000000     
  0.50000000000000000     
  0.50000000000000000     
  0.50000000000000000     
  0.50000000000000000     
  0.50000000000000000     
  0.50000000000000000     
  0.50000000000000000     
  0.50000000000000000     
  0.50000000000000000     
  0.50000000000000000     
  0.50000000000000000     
  0.50000000000000000     
  0.50000000000000000     
  0.50000000000000000     
  0.50000000000000000     
  0.50000000000000000     
  0.50000000000000000     
  0.50000000000000000     
  0.50000000000000000     
  0.50000000000000000     
  0.50000000000000000     
  0.50000000000000000     
  0.50000000000000000     
  0.50000000000000000     
  0.50000000000000000     
  0.50000000000000000     
  0.50000000000000000     
  0.50000000000000000     
  0.50000000000000000     
  0.50000000000000000     
  0.50000000000000000     
  0.50000000000000000     
  0.50000000000000000     
  0.50000000000000000     
  0.50000000000000000     
  0.50000000000000000     
  0.50000000000000000     
  0.50000000000000000     
  0.50000000000000000     
  0.50000000000000000     
  0.50000000000000000     
  0.50000000000000000     
  0.50000000000000000     
  0.50000000000000000     
  0.50000000000000000     
  0.50000000000000000     
  0.50000000000000000     
  0.50000000000000000     
  0.50000000000000000     
  0.50000000000000000     
  0.50000000000000000     
  0.50000000000000000     
  0.50000000000000000     
  0.50000000000000000     
  0.50000000000000000     
  0.50000000000000000     
  0.50000000000000000     
  0.50000000000000000     
  0.50000000000000000     
  0.50000000000000000     
  0.50000000000000000     
  0.50000000000000000     
  0.50000000000000000     
  0.50000000000000000     
  0.50000000000000000     
  0.50000000000000000     
  0.50000000000000000     
  0.50000000000000000     
  0.50000000000000000     
  0.50000000000000000     
  0.50000000000000000     
  0.50000000000000000     
  0.50000000000000000     
  0.50000000000000000     
  0.50000000000000000     
  0.50000000000000000     
  0.50000000000000000     
  0.50000000000000000     
  0.50000000000000000     
  0.50000000000000000     
  0.50000000000000000     
  0.50000000000000000     
  0.50000000000000000     
  0.50000000000000000     
  0.50000000000000000     
  0.50000000000000000     
  0.50000000000000000     
  0.50000000000000000     
  0.50000000000000000     
  0.50000000000000000     
  0.50000000000000000     
  0.50000000000000000     
  0.50000000000000000     
  0.50000000000000000     
  0.50000000000000000     
  0.50000000000000000     
  0.50000000000000000     
  0.50000000000000000     
  0.50000000000000000     
  0.50000000000000000     
  0.50000000000000000     
  0.50000000000000000     
  0.50000000000000000     
  0.50000000000000000     
  0.50000000000000000     
  0.50000000000000000     
  0.50000000000000000     
  0.50000000000000000     
  0.50000000000000000     
  0.50000000000000000     
  0.50000000000000000     
  0.50000000000000000     
  0.50000000000000000     
  0.50000000000000000     
  0.50000000000000000     
  0.50000000000000000     
  0.50000000000000000     
  0.50000000000000000     
  0.50000000000000000     
  0.50000000000000000     
  0.50000000000000000     
  0.50000000000000000     
  0.50000000000000000     
  0.50000000000000000     
  0.50000000000000000     
  0.50000000000000000     
  0.50000000000000000     
