# vtk DataFile Version 5.1
Data.vtk
ASCII
DATASET UNSTRUCTURED_GRID
 
POINTS 500 float
  -1.2315919095314936       -7.4631897334129071        2.0251397322879514     
   1.2935770730078748       -8.3705528116666912       -1.6147206225698973     
   3.2170361686367959       -8.9113034227459167      -0.69842927664902488     
 -0.29675801481666619       -7.6889481722966098       -1.9230794818792847     
   2.1563001566734057       -6.3604934665477773       -3.8703000697767358     
   9.2169413057641929       -1.1197521596638516       -1.4297935515636426     
   5.8340250166869350       -5.7149264720783810        2.8806967575214100     
   3.3312277093929743       -6.9267507759045737       0.56783256027300733     
   2.9777700350872038       -5.7913951213096295       -3.8261738497781228     
  -1.4480887035277492       -8.8365775320651938      -0.57854815778307922     
   5.0233179582112895       -4.4652230581788768       -5.1615343394780355     
   8.0824784799975955       -4.2954685930756966       -2.4973819976120595     
   4.2846825564771951       -6.1645998273020028        3.9058069717328738     
   5.6202932175451661       -7.0471926832514917       0.16735450831975188     
  -1.2069941698799864       -8.4967162367003066       0.48679628848264850     
   5.8060109880533357       -4.5515919209248468       -1.9965983055154259     
   3.8426560831890688       -5.2927617469071606       -3.6825952428571833     
  0.73530493666510677       -5.6049763204643437      -0.19467112263595401     
   1.7937558320796760       -6.9224677180855281        4.8103448913008275     
   4.5081257737111375       -5.8596653646535577       -4.1713147952732879     
   3.2507373776603923       -6.7509661857115644       -1.1903661310247424     
   4.1211282337093733       -8.5460505692746782      -0.47347438104743705     
   6.7206614823199580       -5.8160761680836783        3.3388097052628147     
   5.0985221235040807       -7.0346031901071013        3.8430835333623428     
   7.0133306523075669       -4.9102466618966805      -0.73038728615663284     
   6.6290980328228599       -6.6603389665007331       -1.3919663728873548     
   3.0156195249559072       -7.6069187692275486        2.0537497883609377     
   7.1447837780715826       -5.9600802468167897       -1.8861054313521828     
   3.0294786765953510       -6.7094105303557505       -5.8750686731396327     
   3.9733792433329027       -5.5852228031289766        3.1200233235640438     
   9.1718486127572643      -0.12296069689705479       -1.3611722276555689     
   2.5959728419854264       -5.9514983368249021        4.1735219662118626     
   2.2133122605972342       -7.2630917451773254       -5.7095541912452941     
   5.4482105118630555       -6.6632475061662628        1.1044193892085719     
  -3.3942383172005335       -8.3983868889381732       -2.1232313504637506     
   5.8030237166514134       -6.8779581031863968       -3.0425554760991744     
   5.2726529951485661       -3.9452104585851808       0.89591070632286063     
   6.1540421398874070       -3.8152988250918947        5.9843640888433862     
   8.0112740778279257       -2.4747882835713741        1.4325264103879385     
   3.1142286502799426       -6.1029318310209080        6.5786452259038146     
 -0.25929139348865055       -8.4774019083228200       0.80540982226480295     
   4.3504629960500569       -4.9417868453994700        5.3953554989219850     
  -2.2696682551418497       -7.5901298874706287        4.5170139835315286     
   8.2565623028552295      -0.80041151183698589        4.6280620024366623     
   6.1955455846054868       -4.2046879900839622       -5.7754383301018040     
  -1.5658899021737820       -6.8855059784488057       -3.3137814243848562     
   3.6245172931604577       -8.1274577344138290        3.3207042843106751     
   5.3137119047047703       -4.7465481950550998       -2.8472227776572407     
   5.2873013579375145       -5.8096879873225529       -3.4645625555639388     
  -1.0561910518527491       -9.3723158590009454        1.1376231823303038     
   6.7976652213871187       -2.4822746992641256       -2.6317013856792588     
   3.5693225054005531       -5.8543122829069478       -4.9622559274684219     
   3.7940794176373283       -6.6613972421158669      -0.28887335954886439     
  -5.5602378445864985E-002  -9.4339435998855006        1.1141569488387921     
   2.5233687856766780       -8.8807650591601970        2.1752150684077294     
   7.5610685645708449       -1.6669061567499279       -4.8284913074169911     
  -2.2577097147566230       -9.1196241665415467        1.4090170711590768     
   1.3028218511322145       -8.7455481666732524       -3.4738991887353934     
   7.1431542405553170       -4.7640043536256060       -4.0654115095865562     
   1.3363387108244495       -7.8606502711581028        2.9620789447850546     
   5.0560356957727928       -5.8902905311858209       0.60568562510875945     
   8.5372503340463002       -3.4363354416684855       -2.2626111189301370     
   6.2088008249283471       -5.8195716320478121        4.2065079867154447     
   9.2564934221435724       0.86930386546851424       -1.5010982374282775     
   3.8155788289557702       -6.0434353820546907       -6.2577379383898979     
   4.7219559730549951       -5.7759480401669343       -5.8814206396159330     
   6.2865831925429845       -5.5967044793489320      -0.77132321917759084     
   5.4869693284974286       -2.9111416444875320        5.4126733743483681     
  -2.4323444213732968       -9.1729529692732275      -0.43194255179803931     
 -0.37112582963758312       -8.3428498357583170        2.4412523981743499     
   7.4589213351510102       -2.6590151707417107       -4.9003256282977352     
   3.8020888178429928       -6.7959194456476428        5.4007403764142961     
   7.2279859168636165      -0.90142972226890350        5.1826198523827856     
   5.4735811243363486       -4.9469063156173076        2.3506075614890412     
   4.6563833547887370       -8.1376342173936997        1.4111515356520177     
  -1.1859098770929424       -9.3189316129974955       -1.4145428689746198     
   7.5905995584967121       -3.2314041232112225        4.6165563272578911     
   1.9431442884983887       -7.4150200392987573      -0.34432581758355352     
   7.2459058488280981       -2.4535618944158668      -0.50335629209591548     
   1.7503577209642065       -6.3743981011379605       -1.6984708808253743     
  -2.6567044478951711       -7.9697037645321167      -0.11229013313504153     
  -2.5273324460263162       -8.1455753481010245       -1.0895711154774301     
   5.0495764163039478       -6.3334497362868349        2.9353935968588902     
  0.17475796982257352       -9.0410232211831758        2.9119490377578647     
   7.3350677697196129       -5.4401879464527774        2.6164707701915764     
  0.49618942063048344       -7.8440933538144124        2.4197338881120198     
   3.6929815616974602       -6.6435979216451830        1.4560385064357297     
   8.6979204130257042      -0.23746424461660390       -3.1095118779575932     
   8.3216825953733071       -4.5047323847117173       0.84681224477001149     
  -2.4243539623197785       -8.7991601312757606       -2.6121519068360204     
   7.1240613543955780       -4.0184166566922759       -2.6069551524218926     
   5.2506701180374078       -2.9589870944035037       -3.7906123625978623     
   6.5786877676388169       -3.8512774174588271      -0.21682683212282333     
   3.7275635426970299       -5.9507661947147383       -2.9378478681352447     
 -0.39814954718335605       -8.9420478808495538       -3.1779622764623836     
   2.7917101841449430       -5.7423580006501656       -5.9778700885679843     
   6.7316768322694589       -6.4832632098942886        1.6645729648610084     
  -1.3270834673538912       -7.6177931517434274        2.2223594594701735E-002
 -0.48253442343416220       -7.6206398007897977        5.6515672159129098     
 -0.54477278843842181       -8.7854963686518488        3.5732847127642318     
   1.7949825627047671       -6.2333813784241476       -2.6879583317717568     
   8.3805919693382975       -3.0892706430770378       -3.1872860797277922     
   3.7339564329879043       -8.6056424628310051       -1.4993641341604051     
  -1.8512589922266975       -7.4618698304233693      -0.81497516345601595     
   4.4113694020210872       -8.4000518631329264       0.47775017483442700     
  0.30998297495503374       -8.4244923197348562        1.6259894843045233     
 -0.94019556190706033       -8.4879152092606081       -4.1600140439264255     
   1.8181522360122322       -7.3210416401788434       -3.9745711509278534     
   8.8684558603373791      -0.10995029167654631        2.8515766811564771     
  -5.0216283742130080E-002  -6.2530960613915516       -1.1723417191513406     
   9.4463661458051842      -0.89374244645675327      -0.46653764264125658     
   7.8112242637550686       -3.8271159703112931       0.31664559180879609     
   9.0192757607656446       -1.5227280152029186       -2.5580711847766433     
  0.70145576919017483       -6.3620556170864688       -1.8315140363461428     
   9.3287631341776898       0.14463512769484629       0.62715408668779826     
   1.2670556985851846       -6.5824724965210253       -3.4621457975352863     
   8.3039524696683795       -1.0912857107443485       -4.4835966307133504     
   5.1281358093300708       -7.7409597939059829       -2.0072959741069596     
 -0.55679168063753370       -9.2156858062001810       -2.2286790654906206     
   3.6371580371661456       -7.8078413875129753       0.20716526721093792     
  -1.6762663508247744       -9.3476939433050870       0.25077877622561662     
 -0.29963834747154650       -7.6354745249959368        1.7059860761873340     
   8.3996731455965516       -4.0269141601745622        1.8647149662174158     
   6.1984724216585647       -7.1680844856050738      -0.64503360636497442     
   8.9659253997071922       -1.3216818338317571        1.3852744326585060     
[...]
POINT_DATA  500
SCALARS radius float
LOOKUP_TABLE default
  0.50000000000000000     
  0.50000000000000000     
  0.50000000000000000     
  0.50000000000000000     
  0.50000000000000000     
  0.50000000000000000     
  0.50000000000000000     
  0.50000000000000000     
  0.50000000000000000     
  0.50000000000000000     
  0.50000000000000000     
  0.50000000000000000     
  0.50000000000000000     
  0.50000000000000000     
  0.50000000000000000     
  0.50000000000000000     
  0.50000000000000000     
  0.50000000000000000     
  0.50000000000000000     
  0.50000000000000000     
  0.50000000000000000     
  0.50000000000000000     
  0.50000000000000000     
  0.50000000000000000     
  0.50000000000000000     
  0.50000000000000000     
  0.50000000000000000     
  0.50000000000000000     
  0.50000000000000000     
  0.50000000000000000     
  0.50000000000000000     
  0.50000000000000000     
  0.50000000000000000     
  0.50000000000000000     
  0.50000000000000000     
  0.50000000000000000     
  0.50000000000000000     
  0.50000000000000000     
  0.50000000000000000     
  0.50000000000000000     
  0.50000000000000000     
  0.50000000000000000     
  0.50000000000000000     
  0.50000000000000000     
  0.50000000000000000     
  0.50000000000000000     
  0.50000000000000000     
  0.50000000000000000     
  0.50000000000000000     
  0.50000000000000000     
  0.50000000000000000     
  0.50000000000000000     
  0.50000000000000000     
  0.50000000000000000     
  0.50000000000000000     
  0.50000000000000000     
  0.50000000000000000     
  0.50000000000000000     
  0.50000000000000000     
  0.50000000000000000     
  0.50000000000000000     
  0.50000000000000000     
  0.50000000000000000     
  0.50000000000000000     
  0.50000000000000000     
  0.50000000000000000     
  0.50000000000000000     
  0.50000000000000000     
  0.50000000000000000     
  0.50000000000000000     
  0.50000000000000000     
  0.50000000000000000     
  0.50000000000000000     
  0.50000000000000000     
  0.50000000000000000     
  0.50000000000000000     
  0.50000000000000000     
  0.50000000000000000     
  0.50000000000000000     
  0.50000000000000000     
  0.50000000000000000     
  0.50000000000000000     
  0.50000000000000000     
  0.50000000000000000     
  0.50000000000000000     
  0.50000000000000000     
  0.50000000000000000     
  0.50000000000000000     
  0.50000000000000000     
  0.50000000000000000     
  0.50000000000000000     
  0.50000000000000000     
  0.50000000000000000     
  0.50000000000000000     
  0.50000000000000000     
  0.50000000000000000     
  0.50000000000000000     
  0.50000000000000000     
  0.50000000000000000     
  0.50000000000000000     
  0.50000000000000000     
  0.50000000000000000     
  0.50000000000000000     
  0.50000000000000000     
  0.50000000000000000     
  0.50000000000000000     
  0.50000000000000000     
  0.50000000000000000     
  0.50000000000000000     
  0.50000000000000000     
  0.50000000000000000     
  0.50000000000000000     
  0.50000000000000000     
  0.50000000000000000     
  0.50000000000000000     
  0.50000000000000000     
  0.50000000000000000     
  0.50000000000000000     
  0.50000000000000000     
  0.50000000000000000     
  0.50000000000000000     
  0.50000000000000000     
  0.50000000000000000     
  0.50000000000000000     
  0.50000000000000000     
  0.50000000000000000     
  0.50000000000000000     
  0.50000000000000000     
  0.50000000000000000     
  0.50000000000000000     
  0.50000000000000000     
  0.50000000000000000     
  0.50000000000000000     
  0.50000000000000000     
  0.50000000000000000     
  0.50000000000000000     
  0.50000000000000000     
  0.50000000000000000     
  0.50000000000000000     
  0.50000000000000000     
  0.50000000000000000     
  0.50000000000000000     
  0.50000000000000000     
  0.50000000000000000     
  0.50000000000000000     
  0.50000000000000000     
  0.50000000000000000     
  0.50000000000000000     
  0.50000000000000000     
  0.50000000000000000     
  0.50000000000000000     
  0.50000000000000000     
  0.50000000000000000     
  0.50000000000000000     
  0.50000000000000000     
  0.50000000000000000     
  0.50000000000000000     
  0.50000000000000000     
  0.50000000000000000     
  0.50000000000000000     
  0.50000000000000000     
  0.50000000000000000     
  0.50000000000000000     
  0.50000000000000000     
  0.50000000000000000     
  0.50000000000000000     
  0.50000000000000000     
  0.50000000000000000     
  0.50000000000000000     
  0.50000000000000000     
  0.50000000000000000     
  0.50000000000000000     
  0.50000000000000000     
  0.50000000000000000     
  0.50000000000000000     
  0.50000000000000000     
  0.50000000000000000     
  0.50000000000000000     
  0.50000000000000000     
  0.50000000000000000     
  0.50000000000000000     
  0.50000000000000000     
  0.50000000000000000     
  0.50000000000000000     
  0.50000000000000000     
  0.50000000000000000     
  0.50000000000000000     
  0.50000000000000000     
  0.50000000000000000     
  0.50000000000000000     
  0.50000000000000000     
  0.50000000000000000     
  0.50000000000000000     
  0.50000000000000000     
  0.50000000000000000     
  0.50000000000000000     
  0.50000000000000000     
  0.50000000000000000     
  0.50000000000000000     
  0.50000000000000000     
  0.50000000000000000     
  0.50000000000000000     
  0.50000000000000000     
  0.50000000000000000     
  0.50000000000000000     
  0.50000000000000000     
  0.50000000000000000     
  0.50000000000000000     
  0.50000000000000000     
  0.50000000000000000     
  0.50000000000000000     
  0.50000000000000000     
  0.50000000000000000     
  0.50000000000000000     
  0.50000000000000000     
  0.50000000000000000     
  0.50000000000000000     
  0.50000000000000000     
  0.50000000000000000     
  0.50000000000000000     
  0.50000000000000000     
  0.50000000000000000     
  0.50000000000000000     
  0.50000000000000000     
  0.50000000000000000     
  0.50000000000000000     
  0.50000000000000000     
  0.50000000000000000     
  0.50000000000000000     
  0.50000000000000000     
  0.50000000000000000     
  0.50000000000000000     
  0.50000000000000000     
  0.50000000000000000     
  0.50000000000000000     
  0.50000000000000000     
  0.50000000000000000     
  0.50000000000000000     
  0.50000000000000000     
  0.50000000000000000     
  0.50000000000000000     
  0.50000000000000000     
  0.50000000000000000     
  0.50000000000000000     
  0.50000000000000000     
  0.50000000000000000     
  0.50000000000000000     
  0.50000000000000000     
  0.50000000000000000     
  0.50000000000000000     
  0.50000000000000000     
  0.50000000000000000     
  0.50000000000000000     
  0.50000000000000000     
  0.50000000000000000     
  0.50000000000000000     
  0.50000000000000000     
  0.50000000000000000     
  0.50000000000000000     
  0.50000000000000000     
  0.50000000000000000     
  0.50000000000000000     
  0.50000000000000000     
  0.50000000000000000     
  0.50000000000000000     
  0.50000000000000000     
  0.50000000000000000     
  0.50000000000000000     
  0.50000000000000000     
  0.50000000000000000     
  0.50000000000000000     
  0.50000000000000000     
  0.50000000000000000     
  0.50000000000000000     
  0.50000000000000000     
  0.50000000000000000     
  0.50000000000000000     
  0.50000000000000000     
  0.50000000000000000     
  0.50000000000000000     
  0.50000000000000000     
  0.50000000000000000     
  0.50000000000000000     
  0.50000000000000000     
  0.50000000000000000     
  0.50000000000000000     
  0.50000000000000000     
  0.50000000000000000     
  0.50000000000000000     
  0.50000000000000000     
  0.50000000000000000     
  0.50000000000000000     
  0.50000000000000000     
  0.50000000000000000     
  0.50000000000000000     
  0.50000000000000000     
  0.50000000000000000     
  0.50000000000000000     
  0.50000000000000000     
  0.50000000000000000     
  0.50000000000000000     
  0.50000000000000000     
  0.50000000000000000     
  0.50000000000000000     
  0.50000000000000000     
  0.50000000000000000     
  0.50000000000000000     
  0.50000000000000000     
  0.50000000000000000     
  0.50000000000000000     
  0.50000000000000000     
  0.50000000000000000     
  0.50000000000000000     
  0.50000000000000000     
  0.50000000000000000     
  0.50000000000000000     
  0.50000000000000000     
  0.50000000000000000     
  0.50000000000000000     
  0.50000000000000000     
  0.50000000000000000     
  0.50000000000000000     
  0.50000000000000000     
  0.50000000000000000     
  0.50000000000000000     
  0.50000000000000000     
  0.50000000000000000     
  0.50000000000000000     
  0.50000000000000000     
  0.50000000000000000     
  0.50000000000000000     
  0.50000000000000000     
  0.50000000000000000     
  0.50000000000000000     
  0.50000000000000000     
  0.50000000000000000     
  0.50000000000000000     
  0.50000000000000000     
  0.50000000000000000     
  0.50000000000000000     
  0.50000000000000000     
  0.50000000000000000     
  0.50000000000000000     
  0.50000000000000000     
  0.50000000000000000     
  0.50000000000000000     
  0.50000000000000000     
  0.50000000000000000     
  0.50000000000000000     
  0.50000000000000000     
  0.50000000000000000     
  0.50000000000000000     
  0.50000000000000000     
  0.50000000000000000     
  0.50000000000000000     
  0.50000000000000000     
  0.50000000000000000     
  0.50000000000000000     
  0.50000000000000000     
  0.50000000000000000     
  0.50000000000000000     
  0.50000000000000000     
  0.50000000000000000     
  0.50000000000000000     
  0.50000000000000000     
  0.50000000000000000     
  0.50000000000000000     
  0.50000000000000000     
  0.50000000000000000     
  0.50000000000000000     
  0.50000000000000000     
  0.50000000000000000     
  0.50000000000000000     
  0.50000000000000000     
  0.50000000000000000     
  0.50000000000000000     
  0.50000000000000000     
  0.50000000000000000     
  0.50000000000000000     
  0.50000000000000000     
  0.50000000000000000     
  0.50000000000000000     
  0.50000000000000000     
  0.50000000000000000     
  0.50000000000000000     
  0.50000000000000000     
  0.50000000000000000     
  0.50000000000000000     
  0.50000000000000000     
  0.50000000000000000     
  0.50000000000000000     
  0.50000000000000000     
  0.50000000000000000     
  0.50000000000000000     
  0.50000000000000000     
  0.50000000000000000     
  0.50000000000000000     
  0.50000000000000000     
  0.50000000000000000     
  0.50000000000000000     
  0.50000000000000000     
  0.50000000000000000     
  0.50000000000000000     
  0.50000000000000000     
  0.50000000000000000     
  0.50000000000000000     
  0.50000000000000000     
  0.50000000000000000     
  0.50000000000000000     
  0.50000000000000000     
  0.50000000000000000     
  0.50000000000000000     
  0.50000000000000000     
  0.50000000000000000     
  0.50000000000000000     
  0.50000000000000000     
  0.50000000000000000     
  0.50000000000000000     
  0.50000000000000000     
  0.50000000000000000     
  0.50000000000000000     
  0.50000000000000000     
  0.50000000000000000     
  0.50000000000000000     
  0.50000000000000000     
  0.50000000000000000     
  0.50000000000000000     
  0.50000000000000000     
  0.50000000000000000     
  0.50000000000000000     
  0.50000000000000000     
  0.50000000000000000     
  0.50000000000000000     
  0.50000000000000000     
  0.50000000000000000     
  0.50000000000000000     
  0.50000000000000000     
  0.50000000000000000     
  0.50000000000000000     
  0.50000000000000000     
  0.50000000000000000     
  0.50000000000000000     
  0.50000000000000000     
  0.50000000000000000     
  0.50000000000000000     
  0.50000000000000000     
  0.50000000000000000     
  0.50000000000000000     
  0.50000000000000000     
  0.50000000000000000     
  0.50000000000000000     
  0.50000000000000000     
  0.50000000000000000     
  0.50000000000000000     
  0.50000000000000000     
  0.50000000000000000     
  0.50000000000000000     
  0.50000000000000000     
  0.50000000000000000     
  0.50000000000000000     
  0.50000000000000000     
  0.50000000000000000     
  0.50000000000000000     
  0.50000000000000000     
  0.50000000000000000     
  0.50000000000000000     
  0.50000000000000000     
  0.50000000000000000     
  0.50000000000000000     
  0.50000000000000000     
  0.50000000000000000     
  0.50000000000000000     
  0.50000000000000000     
  0.50000000000000000     
  0.50000000000000000     
  0.50000000000000000     
  0.50000000000000000     
  0.50000000000000000     
  0.50000000000000000     
  0.50000000000000000     
  0.50000000000000000     
  0.50000000000000000     
  0.50000000000000000     
  0.50000000000000000     
  0.50000000000000000     
  0.50000000000000000     
  0.50000000000000000     
  0.50000000000000000     
  0.50000000000000000     
  0.50000000000000000     
  0.50000000000000000     
  0.50000000000000000     
  0.50000000000000000     
  0.50000000000000000     
  0.50000000000000000     
  0.50000000000000000     
  0.50000000000000000     
  0.50000000000000000     
  0.50000000000000000     
  0.50000000000000000     
