# vtk DataFile Version 5.1
Data.vtk
ASCII
DATASET UNSTRUCTURED_GRID
 
POINTS 500 float
   6.9696898691444247       -6.3828801167362519       0.96585320990831658     
   3.3741969957617597       -5.6403395172399016       -1.0872787364301182     
   1.7607993178220374       -6.5537835512516853       0.60596319423857414     
   1.4512494282149118       -7.6359781001544924       -2.3140293565036960     
   5.1013063325623573       -7.8569777020673461       -1.5794492718897157     
 -0.80492535439718726       -8.1258254451927261       -2.5039523177669065     
   2.3938965974638666       -7.8786708974000197        2.3860011658277944     
   3.3417963154743715       -6.8624900155295041        1.1160486299336643     
   6.9708527728203560       -4.2476206202004851       -2.1201416349623847     
   5.3248719820233985       -3.8060903192197362       -3.6342866384835641     
   1.7872318874869284       -9.1866075327655743       -1.5622382073894996     
   2.4124848021039091       -5.5333268024611080       -4.8501792252880138     
   5.5164216718996562       -5.8904042068982587        3.0137950647995067     
 -0.17111579105823746       -8.4769107650733915       0.53872755553706997     
  -1.1049375050638561       -7.3393490835671686       -1.9625831222828214     
   4.2483154103067600       -8.4412000446566857      -0.97478657138112768     
   3.5195968598822427       -8.3656848685608907       -2.7858213825214704     
   2.2517413380284772       -9.1652070319050143        1.0293110023302723     
   5.9232310501887735       -4.9888447197505084        3.6958335091713974     
   7.0212824873109962       -5.6804868849769230       -2.9260392930376855     
   4.2230058045360162       -6.3964613353442958      -0.57985144170708769     
   8.2380895989813698       -2.4338868809749830       -3.7418457396216942     
   8.6495203056419463      -0.47697725996137613        3.4349072392250743     
   3.9786191905085548       -6.2696727738933884        4.3136342679827564     
   2.5361201925867736       -8.1573321551626421       -1.1414658334833445     
   8.4732843366508099      -0.21413396255986944       -4.2721114417087476     
 -0.67956101829384297       -7.3385540167989820        2.4707987917941119     
   2.8765305661761844       -5.9106357746894309       -4.0293388035171223     
   5.7271817424816991       -4.9856631694019482       -5.7088499017779002     
   5.7906292706464484       -7.2391812366254964        2.0581753435961652     
  -1.0478204984087887       -7.0711912871439173       -4.2683668329935980     
   3.3509593757771481       -8.3999698087147845        2.9092150841024145     
   5.8649422096244912       -5.6511861978955409       -4.8779077383270648     
  0.75195893086550747       -8.3906993836297072        1.1768680751119578     
   8.6064802702339449       -1.7157004045286735       -1.6422234226659955     
   6.4349258748694762       -4.0884775960598256       -5.6680611392014901     
  -1.0986601729153695       -9.4089677266807588      -0.71399483354749305     
   4.3888212381268037       -5.8268591982647475        6.0857091541596979     
   5.1503014159008957       -6.7889084522658392       0.61638461873140216     
   4.7509076152465859       -6.3044108952231266        5.2852585497181481     
   2.4459807421406459       -6.2210905486123105        1.2557295173561198     
 -0.60271844968393751       -9.2489118427059456        2.0843346010798638     
   4.0528782639552112       -6.9710335083313257        5.0227817676116029     
 -0.84895736179941106       -7.6232256920044499        4.2370169115147789     
   3.4095105775860137       -7.3344388004939782       -4.9813441362873654     
   3.6008837233941757       -7.9623363810370327       -3.7209403892949728     
   7.0154969540515140       -3.3478645600242594        3.3748092813826691     
 -0.85207078895659927       -9.3042806732434524       -1.7093791032001571     
   5.6682911839117516       -5.5311479659957667       -3.2046282481241910     
   1.8634950318191590       -6.6267039747766239      -0.41877909656455720     
  -3.4029653090858067       -8.7452330316847604       -1.4252486526815320     
   4.4643637620670624       -7.7267545254723409       -3.2572140789957755     
   4.6002316947497182       -5.9627839549172466       0.26429132873259470     
   4.0706544187911184       -4.8117264056190763        3.4154452955969039     
   4.3261326618387255       -5.0767207233535698        5.4257499641262399     
   5.6079823799513502       -3.3566769192705479       -6.8648176429891832     
   5.2306600773684480       -4.1387081397370329        4.2763324814973123     
   5.0895248456795104       -6.2702316353077787       -5.0028365727031883     
   7.9818344153647978       -1.5987210801527401       -4.2307175747842649     
   2.2345171246458007       -7.1050719927667947        4.1073699577676717     
   6.1146827084216708       -4.6627601366143994       0.35513065102195934     
   4.9073183469549013       -2.7028760469116286       -6.5482082474891561     
   7.3377584271183682       -2.4895049779250673        5.4899519807336397     
  -2.7432049119697162       -7.8342519413461629       -2.2817344804150479     
   7.8475560376602873       -3.1785866269174243       -4.2990270886851709     
   4.1055116021283595       -6.1455758216313123       -5.8586837429640672     
  0.73713544298607525       -8.7238325820140190       -1.3525369060782610     
   1.1401989194629598       -8.6662110291577505        3.7115250771448101     
   7.7176941011177203       -5.5080382629732005      -0.40980278731164682     
   2.7809671930126965       -6.2490010850081559        3.2751606724662716     
   2.4063793924340229       -7.3910188677593256       -5.4418896592263888     
   6.5646013989990992       -5.2264054083050482        4.4270959384669766     
  0.83732172181259401       -7.6540327004151196        5.5646500765060152     
   7.7465633132060834       -3.8991272903201435       0.62599242709071479     
   3.3474098288063092       -5.5293797142465717        3.7093096550922504     
   3.2187901594570878       -6.4203833552579930       -2.3334077416016523     
   5.4570189033909671       -4.4017054545988321        5.7601930619697708     
   2.6096906454085853       -7.3036387710149011      -0.60971200888506649     
  -3.9120912146630240       -8.1083923934256585       -2.4137930977286648     
   4.8317387590720751       -8.1722734466626310      -0.20850822955274184     
   6.4852390961015436       -6.9385270367352012       0.21219065620995572     
   2.4549060285306195       -7.0551290925540915       -2.4524330563207024     
   1.6422628573216933       -8.0915984749260481        3.0356307604885595     
   8.6194746796493504       -2.4147728964280613        2.9840846746648015     
   6.5340599065435665       -2.2648790153278213        6.1230397419739360     
   1.7826327685676688       -7.2490402609598750        1.9024157249086551     
   4.2305808717557492       -6.2934348859321041        1.1326526773388832     
 -0.16356947362464658       -7.0400950502595769       -4.7610067999844095     
  -2.6782500050658626       -8.0587391096324552       -1.3036460374289489     
   9.1978031924512091       -9.6770968340530852E-002  -1.1824739434973988     
   5.1242218722990600       -6.5623347149142157       -2.0880242918368892     
  -2.3328892555061440       -8.6524055688473425       -3.1529495460404009     
 -0.24447462895228761       -9.4932922706952390      -0.19806880650435452     
   6.5288541740260246       -5.1560214476810087       -2.2284211386565591     
   6.6245283426744441       -5.6183977923121091       -3.8469060509069020     
 -0.34316930555782632       -8.7372424540893672       -3.7112299322151920     
   2.3842601906925847       -5.6307189808881635        5.4207174304022105     
   4.0800415070934770       -5.2594367061607183       0.75123035288362805     
   6.0355382100644794       -6.7381553285788334        2.8987703957103688     
   8.0082939735049230       -4.5737991160677467        2.2794315649086507     
   7.2545905506649051       -5.8143058932409506       -1.9448214336241798     
   5.7240511361526520       -1.7321929264819167       -7.2900313246003154     
   7.4486146481322972       -4.8584719067204478       -3.3023568939245451     
   4.2435149632545013       -5.3833918439062494      -0.52095970157070270     
  0.96268168904401574       -6.6727307468114292        1.5439560366692130E-002
   3.3519628834063497       -5.8071746783368035        1.1639466047114724     
   7.7131172880662833       -5.0222729608014589       -2.3520085831136583     
   5.8295923344234772       -5.0094345105636329       -4.1037415380236979     
  -1.5582544378614838       -9.1259670649891120       0.15591522675092565     
   7.2042179133055395       -3.3002562684906946        3.0598887341981261E-003
  -2.3911231986754413       -8.2407006993757062       -4.0699395993338472     
   3.4835434976080801       -7.8685062653703612       0.62223666692565627     
   2.1478546974612378       -5.8284436593561413       -7.1550988246896816     
   7.1654527960521950       -6.1443850084439671       -1.0051585028315710     
  -1.2970938412324766       -7.4937309724260830      -0.76208822768818518     
   4.4200545107692495       -8.0814069817248981       -2.3207689030399372     
  0.93638725702247450       -7.1951493977574055       -5.0339208080650817     
   3.6960249794906810       -5.1694946956068817       -2.7828406602691222     
   8.8089983405110104       -1.7927599171043576       -3.0716799028310864     
  -1.5233483287442127       -8.1225870645530360       0.85612973982013063     
   2.4226631570742292       -6.0688796430622043       -1.0361842189554777     
   6.6154498413609639       -3.1080723885464479        1.8387403943537692     
   3.6776245631931328       -4.3535537233083836        5.0198390289472146     
   1.6049511202629840       -5.4632257639940960       -3.3728004118299801     
  -3.9822373000484719       -8.4029235545304992       0.52701578700231200     
[...]
POINT_DATA  500
SCALARS radius float
LOOKUP_TABLE default
  0.50000000000000000     
  0.50000000000000000     
  0.50000000000000000     
  0.50000000000000000     
  0.50000000000000000     
  0.50000000000000000     
  0.50000000000000000     
  0.50000000000000000     
  0.50000000000000000     
  0.50000000000000000     
  0.50000000000000000     
  0.50000000000000000     
  0.50000000000000000     
  0.50000000000000000     
  0.50000000000000000     
  0.50000000000000000     
  0.50000000000000000     
  0.50000000000000000     
  0.50000000000000000     
  0.50000000000000000     
  0.50000000000000000     
  0.50000000000000000     
  0.50000000000000000     
  0.50000000000000000     
  0.50000000000000000     
  0.50000000000000000     
  0.50000000000000000     
  0.50000000000000000     
  0.50000000000000000     
  0.50000000000000000     
  0.50000000000000000     
  0.50000000000000000     
  0.50000000000000000     
  0.50000000000000000     
  0.50000000000000000     
  0.50000000000000000     
  0.50000000000000000     
  0.50000000000000000     
  0.50000000000000000     
  0.50000000000000000     
  0.50000000000000000     
  0.50000000000000000     
  0.50000000000000000     
  0.50000000000000000     
  0.50000000000000000     
  0.50000000000000000     
  0.50000000000000000     
  0.50000000000000000     
  0.50000000000000000     
  0.50000000000000000     
  0.50000000000000000     
  0.50000000000000000     
  0.50000000000000000     
  0.50000000000000000     
  0.50000000000000000     
  0.50000000000000000     
  0.50000000000000000     
  0.50000000000000000     
  0.50000000000000000     
  0.50000000000000000     
  0.50000000000000000     
  0.50000000000000000     
  0.50000000000000000     
  0.50000000000000000     
  0.50000000000000000     
  0.50000000000000000     
  0.50000000000000000     
  0.50000000000000000     
  0.50000000000000000     
  0.50000000000000000     
  0.50000000000000000     
  0.50000000000000000     
  0.50000000000000000     
  0.50000000000000000     
  0.50000000000000000     
  0.50000000000000000     
  0.50000000000000000     
  0.50000000000000000     
  0.50000000000000000     
  0.50000000000000000     
  0.50000000000000000     
  0.50000000000000000     
  0.50000000000000000     
  0.50000000000000000     
  0.50000000000000000     
  0.50000000000000000     
  0.50000000000000000     
  0.50000000000000000     
  0.50000000000000000     
  0.50000000000000000     
  0.50000000000000000     
  0.50000000000000000     
  0.50000000000000000     
  0.50000000000000000     
  0.50000000000000000     
  0.50000000000000000     
  0.50000000000000000     
  0.50000000000000000     
  0.50000000000000000     
  0.50000000000000000     
  0.50000000000000000     
  0.50000000000000000     
  0.50000000000000000     
  0.50000000000000000     
  0.50000000000000000     
  0.50000000000000000     
  0.50000000000000000     
  0.50000000000000000     
  0.50000000000000000     
  0.50000000000000000     
  0.50000000000000000     
  0.50000000000000000     
  0.50000000000000000     
  0.50000000000000000     
  0.50000000000000000     
  0.50000000000000000     
  0.50000000000000000     
  0.50000000000000000     
  0.50000000000000000     
  0.50000000000000000     
  0.50000000000000000     
  0.50000000000000000     
  0.50000000000000000     
  0.50000000000000000     
  0.50000000000000000     
  0.50000000000000000     
  0.50000000000000000     
  0.50000000000000000     
  0.50000000000000000     
  0.50000000000000000     
  0.50000000000000000     
  0.50000000000000000     
  0.50000000000000000     
  0.50000000000000000     
  0.50000000000000000     
  0.50000000000000000     
  0.50000000000000000     
  0.50000000000000000     
  0.50000000000000000     
  0.50000000000000000     
  0.50000000000000000     
  0.50000000000000000     
  0.50000000000000000     
  0.50000000000000000     
  0.50000000000000000     
  0.50000000000000000     
  0.50000000000000000     
  0.50000000000000000     
  0.50000000000000000     
  0.50000000000000000     
  0.50000000000000000     
  0.50000000000000000     
  0.50000000000000000     
  0.50000000000000000     
  0.50000000000000000     
  0.50000000000000000     
  0.50000000000000000     
  0.50000000000000000     
  0.50000000000000000     
  0.50000000000000000     
  0.50000000000000000     
  0.50000000000000000     
  0.50000000000000000     
  0.50000000000000000     
  0.50000000000000000     
  0.50000000000000000     
  0.50000000000000000     
  0.50000000000000000     
  0.50000000000000000     
  0.50000000000000000     
  0.50000000000000000     
  0.50000000000000000     
  0.50000000000000000     
  0.50000000000000000     
  0.50000000000000000     
  0.50000000000000000     
  0.50000000000000000     
  0.50000000000000000     
  0.50000000000000000     
  0.50000000000000000     
  0.50000000000000000     
  0.50000000000000000     
  0.50000000000000000     
  0.50000000000000000     
  0.50000000000000000     
  0.50000000000000000     
  0.50000000000000000     
  0.50000000000000000     
  0.50000000000000000     
  0.50000000000000000     
  0.50000000000000000     
  0.50000000000000000     
  0.50000000000000000     
  0.50000000000000000     
  0.50000000000000000     
  0.50000000000000000     
  0.50000000000000000     
  0.50000000000000000     
  0.50000000000000000     
  0.50000000000000000     
  0.50000000000000000     
  0.50000000000000000     
  0.50000000000000000     
  0.50000000000000000     
  0.50000000000000000     
  0.50000000000000000     
  0.50000000000000000     
  0.50000000000000000     
  0.50000000000000000     
  0.50000000000000000     
  0.50000000000000000     
  0.50000000000000000     
  0.50000000000000000     
  0.50000000000000000     
  0.50000000000000000     
  0.50000000000000000     
  0.50000000000000000     
  0.50000000000000000     
  0.50000000000000000     
  0.50000000000000000     
  0.50000000000000000     
  0.50000000000000000     
  0.50000000000000000     
  0.50000000000000000     
  0.50000000000000000     
  0.50000000000000000     
  0.50000000000000000     
  0.50000000000000000     
  0.50000000000000000     
  0.50000000000000000     
  0.50000000000000000     
  0.50000000000000000     
  0.50000000000000000     
  0.50000000000000000     
  0.50000000000000000     
  0.50000000000000000     
  0.50000000000000000     
  0.50000000000000000     
  0.50000000000000000     
  0.50000000000000000     
  0.50000000000000000     
  0.50000000000000000     
  0.50000000000000000     
  0.50000000000000000     
  0.50000000000000000     
  0.50000000000000000     
  0.50000000000000000     
  0.50000000000000000     
  0.50000000000000000     
  0.50000000000000000     
  0.50000000000000000     
  0.50000000000000000     
  0.50000000000000000     
  0.50000000000000000     
  0.50000000000000000     
  0.50000000000000000     
  0.50000000000000000     
  0.50000000000000000     
  0.50000000000000000     
  0.50000000000000000     
  0.50000000000000000     
  0.50000000000000000     
  0.50000000000000000     
  0.50000000000000000     
  0.50000000000000000     
  0.50000000000000000     
  0.50000000000000000     
  0.50000000000000000     
  0.50000000000000000     
  0.50000000000000000     
  0.50000000000000000     
  0.50000000000000000     
  0.50000000000000000     
  0.50000000000000000     
  0.50000000000000000     
  0.50000000000000000     
  0.50000000000000000     
  0.50000000000000000     
  0.50000000000000000     
  0.50000000000000000     
  0.50000000000000000     
  0.50000000000000000     
  0.50000000000000000     
  0.50000000000000000     
  0.50000000000000000     
  0.50000000000000000     
  0.50000000000000000     
  0.50000000000000000     
  0.50000000000000000     
  0.50000000000000000     
  0.50000000000000000     
  0.50000000000000000     
  0.50000000000000000     
  0.50000000000000000     
  0.50000000000000000     
  0.50000000000000000     
  0.50000000000000000     
  0.50000000000000000     
  0.50000000000000000     
  0.50000000000000000     
  0.50000000000000000     
  0.50000000000000000     
  0.50000000000000000     
  0.50000000000000000     
  0.50000000000000000     
  0.50000000000000000     
  0.50000000000000000     
  0.50000000000000000     
  0.50000000000000000     
  0.50000000000000000     
  0.50000000000000000     
  0.50000000000000000     
  0.50000000000000000     
  0.50000000000000000     
  0.50000000000000000     
  0.50000000000000000     
  0.50000000000000000     
  0.50000000000000000     
  0.50000000000000000     
  0.50000000000000000     
  0.50000000000000000     
  0.50000000000000000     
  0.50000000000000000     
  0.50000000000000000     
  0.50000000000000000     
  0.50000000000000000     
  0.50000000000000000     
  0.50000000000000000     
  0.50000000000000000     
  0.50000000000000000     
  0.50000000000000000     
  0.50000000000000000     
  0.50000000000000000     
  0.50000000000000000     
  0.50000000000000000     
  0.50000000000000000     
  0.50000000000000000     
  0.50000000000000000     
  0.50000000000000000     
  0.50000000000000000     
  0.50000000000000000     
  0.50000000000000000     
  0.50000000000000000     
  0.50000000000000000     
  0.50000000000000000     
  0.50000000000000000     
  0.50000000000000000     
  0.50000000000000000     
  0.50000000000000000     
  0.50000000000000000     
  0.50000000000000000     
  0.50000000000000000     
  0.50000000000000000     
  0.50000000000000000     
  0.50000000000000000     
  0.50000000000000000     
  0.50000000000000000     
  0.50000000000000000     
  0.50000000000000000     
  0.50000000000000000     
  0.50000000000000000     
  0.50000000000000000     
  0.50000000000000000     
  0.50000000000000000     
  0.50000000000000000     
  0.50000000000000000     
  0.50000000000000000     
  0.50000000000000000     
  0.50000000000000000     
  0.50000000000000000     
  0.50000000000000000     
  0.50000000000000000     
  0.50000000000000000     
  0.50000000000000000     
  0.50000000000000000     
  0.50000000000000000     
  0.50000000000000000     
  0.50000000000000000     
  0.50000000000000000     
  0.50000000000000000     
  0.50000000000000000     
  0.50000000000000000     
  0.50000000000000000     
  0.50000000000000000     
  0.50000000000000000     
  0.50000000000000000     
  0.50000000000000000     
  0.50000000000000000     
  0.50000000000000000     
  0.50000000000000000     
  0.50000000000000000     
  0.50000000000000000     
  0.50000000000000000     
  0.50000000000000000     
  0.50000000000000000     
  0.50000000000000000     
  0.50000000000000000     
  0.50000000000000000     
  0.50000000000000000     
  0.50000000000000000     
  0.50000000000000000     
  0.50000000000000000     
  0.50000000000000000     
  0.50000000000000000     
  0.50000000000000000     
  0.50000000000000000     
  0.50000000000000000     
  0.50000000000000000     
  0.50000000000000000     
  0.50000000000000000     
  0.50000000000000000     
  0.50000000000000000     
  0.50000000000000000     
  0.50000000000000000     
  0.50000000000000000     
  0.50000000000000000     
  0.50000000000000000     
  0.50000000000000000     
  0.50000000000000000     
  0.50000000000000000     
  0.50000000000000000     
  0.50000000000000000     
  0.50000000000000000     
  0.50000000000000000     
  0.50000000000000000     
  0.50000000000000000     
  0.50000000000000000     
  0.50000000000000000     
  0.50000000000000000     
  0.50000000000000000     
  0.50000000000000000     
  0.50000000000000000     
  0.50000000000000000     
  0.50000000000000000     
  0.50000000000000000     
  0.50000000000000000     
  0.50000000000000000     
  0.50000000000000000     
  0.50000000000000000     
  0.50000000000000000     
  0.50000000000000000     
  0.50000000000000000     
  0.50000000000000000     
  0.50000000000000000     
  0.50000000000000000     
  0.50000000000000000     
  0.50000000000000000     
  0.50000000000000000     
  0.50000000000000000     
  0.50000000000000000     
  0.50000000000000000     
  0.50000000000000000     
  0.50000000000000000     
  0.50000000000000000     
  0.50000000000000000     
  0.50000000000000000     
  0.50000000000000000     
  0.50000000000000000     
  0.50000000000000000     
  0.50000000000000000     
  0.50000000000000000     
  0.50000000000000000     
  0.50000000000000000     
  0.50000000000000000     
  0.50000000000000000     
  0.50000000000000000     
  0.50000000000000000     
  0.50000000000000000     
  0.50000000000000000     
  0.50000000000000000     
  0.50000000000000000     
  0.50000000000000000     
  0.50000000000000000     
  0.50000000000000000     
  0.50000000000000000     
  0.50000000000000000     
  0.50000000000000000     
  0.50000000000000000     
  0.50000000000000000     
  0.50000000000000000     
  0.50000000000000000     
  0.50000000000000000     
  0.50000000000000000     
  0.50000000000000000     
  0.50000000000000000     
  0.50000000000000000     
  0.50000000000000000     
  0.50000000000000000     
  0.50000000000000000     
  0.50000000000000000     
  0.50000000000000000     
  0.50000000000000000     
  0.50000000000000000     
  0.50000000000000000     
  0.50000000000000000     
  0.50000000000000000     
  0.50000000000000000     
  0.50000000000000000     
  0.50000000000000000     
  0.50000000000000000     
