# vtk DataFile Version 5.1
Data.vtk
ASCII
DATASET UNSTRUCTURED_GRID
 
POINTS 500 float
   3.6905573159617320       -8.7272890711713149       0.68152861319444402     
   4.0802023382581680       -7.3231951039498817       -1.6472290502714084     
   9.0138127181560446       -1.2573645995438985       -1.8821745827331635     
  -1.0449014951451900       -8.2988347725895242       -1.5373937365866250     
 -0.24986020556519753       -9.2010150312889518       -2.3513796358156673     
   6.0653342928807676       -4.5974255043233443       -1.3258465672395916     
   6.6523077573710134       -4.6968688516972872        2.8953799963527467     
   2.8667225907370208       -6.9543731795227188       0.42237126251349977     
   2.5272514282768950       -8.0730966609830617       -4.3231926436118426     
   7.8329940672925007       -5.1789655280589511       -1.3683523332231764     
  0.37693250045832266       -8.9668561813207557       -3.1149203496832341     
   6.6146852399971188       -2.7210151692073219       -5.8503176897843554     
   3.3472458562243546       -6.9950126718888619        3.9112940822299644     
   7.4701998305014445       -3.9124900239249500       -1.0563022094818020     
   1.7295069494283162       -8.5032434602535556       0.22034605248366582     
   3.9507848163117623       -5.3529948210505012       -2.7911041794715112     
  -9.3709518656485011E-002  -7.1722004370340784       -3.7477754493870208     
  -2.1307105826343791       -9.1599966654154379       -1.3434057399637294     
   1.8980325044941233       -8.8510588386370408        2.6547931750658025     
  -1.5621555235148221       -7.7448124029674075       -3.4142091213981054     
   2.7675353577474313       -7.1131173387498432       -1.4106007746663805     
   9.3862399117069959      -0.70034441493103150      -0.60522847463935781     
   6.8218817973959274       -3.1974641051912172        5.7869045811283115     
   6.0132689691120147       -3.7822918677669710        5.7230053383978010     
   7.5870790637217516       -3.3565100662338399       -1.8791857087221204     
   8.8285081466713642       0.49553677011144703       -1.0043824069212781     
   5.2328492741820920       -6.5423039748520937        1.9309137994603867     
   7.4384008335732199      -0.64126203423166428       -2.4541773051429789     
   4.1825738627406324       -6.9996604655208223       -4.8639560884522295     
   1.5082668892077657       -6.9278232913735920        3.0031513204746401     
   1.2425785293376432       -5.8006796405794763       0.93965718984150814     
   2.9130252224020601       -8.6691162557634325        2.5716712635551540     
   6.5925114445845256       -4.5781870051121878       -5.0458743906089483     
   7.4521911876656102       -4.2323550023353542      -0.10864232735320678     
   5.8517843416433069       -7.4270771072909332      -0.84516775739230865     
   7.0397606189478141       -1.0888481927099738       -4.7373158118460337     
  -1.2636651241531294       -7.5743567041939333       0.82427058093326611     
   1.6674303222385505       -7.7863833351196980        5.1806446193095033     
   5.5729180399513769       -5.1272400351610532        3.9962372133304536     
   3.0660937825249328       -8.0165985504517216        4.0719500307212924     
   2.7947258412063292       -8.9265866621902230       0.13195542054293849     
  -1.5090225748966701       -8.6538133984962808        3.6148298740333780     
   5.5136371010781486       -7.6356256815836012        1.2445537513228955     
  0.16887289114351461       -6.9823006961313343        6.4396531270663280     
   1.1996088562463403       -7.2046041891271599       -6.0748611679115010     
   4.9168560204143930       -7.7260966391647807       -2.5222892203497733     
   8.2899410488791201       -2.0261825542032272        4.1578280360254851     
   2.9195957468282390       -5.8675901629262128       -2.8196400277846867     
   3.8714024409796752       -6.7205490360554272       -3.9463476477994623     
   8.5966767947814073       -4.0368338621670272       0.23561808908630680     
   1.9130676741842207       -6.6464308410470165       -3.6420957621872478     
   3.6744100833498168       -7.6397244962912909       -4.2875315449295286     
   3.3534618772847202       -6.8491095111689875      -0.44476301599060930     
   8.9513827469808618       -3.1413230666899636       0.50489902856693158     
   8.6705522203422554       -2.1185281417478814        2.8227403900214680     
  0.75954430352753066       -6.5238338062374090       -4.6397004433981115     
   8.1211848653364047       -4.9000859775498125       0.40696160112892082     
   7.5069335369954837       -4.0682016238548995       -4.1623830349542281     
   5.2676204735310268       -4.0957340006236116       -4.2874174490469432     
   3.5339249869468778       -7.6099159224602291        2.0318378346515518     
   4.6469267258320643       -6.0220065110997600       0.47383505982257079     
   4.3689767521382548       -4.1800135360746093       -3.7807631203116996     
   4.7842641603409595       -4.7865443214427588        6.6621499091244578     
   3.6997739232448175       -5.2054982856655183       -1.7592970743169491     
  0.32347756838564928       -7.6205674811482131       -5.6632490459044718     
   2.5160415412469881       -7.0621756530554993       -5.8321379079914069     
   7.1317500920623633       -3.9048767449067072       -2.5805700494466426     
  -2.8016976211295095       -8.2746550118168027        1.7711899708943677     
   7.7646594538633087       -5.4342186107650594      -0.35965318899246168     
   1.5155329249393013       -8.2135517622820515        1.9397337669949224     
  -1.0666718646504114       -7.5685760902392945       -4.4226885471931077     
   5.2227090153050177       -5.4588706719046716        5.5531831148902207     
  -2.5186464036511680       -8.7863289388982366        2.5900091412734962     
   3.8289859989771484       -6.0512172295246174        2.1805601225500331     
   8.9974274347667507      -0.48000253791147618        3.0065422645547937     
   8.3307450089747945       -4.3160262440006898       -1.4906526618053009     
   2.6975904401606496       -5.6756474379159165        7.1236293423381802     
   1.3273913868465745       -7.3669161384141715      -0.27426235650663183     
   6.1289831597853333       -4.6920024141424799       0.61137683940545007     
 -0.86541877336559614       -7.3903177783576908       -1.9193160678493080     
   4.3775638062874433       -8.4144738648630781        2.5607545621306928E-002
   4.6047325529725223       -8.2410680450497722       -1.0040808113851118     
   5.9274206330342327       -5.3854409151401477        2.8774153026308937     
   7.7999515846295537       -4.8202973320969011        2.3595848299101667     
   4.1598296773288208       -4.9933556442235290        3.8995282575051062     
   2.5777621732772165       -7.9660732316053195        1.9446076955052825     
   3.4282800580291579       -6.9954671982766010        1.2499192274388491     
   2.8067731859710658       -5.6710082756151721       -1.7249981175820057     
   4.8935470568805890       -3.5017241254745373        7.3374179086822195     
   6.5994909885338195       -6.7226383302633019       -1.2250443881916133     
   5.9599289353217264       -4.7619801516450346       -3.9724697823540192     
   1.6710947643174305       -8.9909111761196332       -2.5726800963386105     
   3.4174563628713024       -5.6030471511141826      -0.87206306517264831     
   1.4027920842537009       -7.0523453004828180       -2.8840047886572968     
   7.8000565793488876       -4.8745224366555613       -2.3749377249818933     
   5.5406875070828772       -6.1174163716444356       -4.6556649954565197     
   6.9816631404646206      -0.95078766503217149        5.1713603699376547     
   5.8558637256473185       -7.4524862375425815       0.32283338390053340     
   4.3611234068730251       -8.2217722098848416        1.9045080321115377     
   7.2163537463512402       -5.5703958604237380        2.6724303485548728     
  -1.3394709198083603       -8.0806430532083677       -2.4714366419953273     
   3.9928687324099581       -4.9646550279233734       -4.3167708552458164     
   8.9345302263451938       -1.3552635426838691       -2.9266497705779209     
   1.9935081154254248       -9.2817961109524934      -0.34991998457149687     
   9.3244816964775712      -0.43323941986125297        1.7139131153533074     
   3.1309206794927404       -7.9739634009108720        1.0269242929898172     
   7.2534487450977414       -5.1956696091123247       -3.2625990147259420     
   1.6241064727414205       -7.9935582842745934       -2.6281261498512181     
 -0.21738512374043686       -6.6658646191529103        2.8659604895919015     
  0.27811621965784544       -8.4046701645882980       -1.4946141309540057     
   6.3632397865173136       -4.2244045647952309      -0.34561918760625648     
   7.8834503436315364       -2.7832135129752893       0.43183289206011893     
   1.1794132634093835       -6.3638681048038572       -5.5329680359801419     
  -1.0611942354131632       -9.2782468155413849       -1.7401313381932992     
   3.0922085883129342       -6.0031201479247880        4.7773745579694937E-002
  0.75908351728211343       -9.2026076535245913       -2.2044256425194511     
 -0.75534207322811397       -7.5595666247699489       -5.4951396040002223     
   7.8801502579528364      -0.77126402805757066       -3.4311188547773228     
   8.2178397562228138       -3.9668854792528880       -2.4212773593804178     
   6.2832168608881638       -5.8407006908677346       0.10946823135398653     
   8.2821661822074066       -4.5961345508194311      -0.53196593610813525     
  -2.0346736427413671E-002  -8.6895850754124595        1.3989289718484088     
   3.1153765819395161       -4.5436936315222933        6.2763058620358958     
   8.2668734797592371       -3.7781975475075530E-002   1.5965788580941367     
   4.5361134848484781       -4.7305621122481032        1.7428606562802917     
[...]
POINT_DATA  500
SCALARS radius float
LOOKUP_TABLE default
  0.50000000000000000     
  0.50000000000000000     
  0.50000000000000000     
  0.50000000000000000     
  0.50000000000000000     
  0.50000000000000000     
  0.50000000000000000     
  0.50000000000000000     
  0.50000000000000000     
  0.50000000000000000     
  0.50000000000000000     
  0.50000000000000000     
  0.50000000000000000     
  0.50000000000000000     
  0.50000000000000000     
  0.50000000000000000     
  0.50000000000000000     
  0.50000000000000000     
  0.50000000000000000     
  0.50000000000000000     
  0.50000000000000000     
  0.50000000000000000     
  0.50000000000000000     
  0.50000000000000000     
  0.50000000000000000     
  0.50000000000000000     
  0.50000000000000000     
  0.50000000000000000     
  0.50000000000000000     
  0.50000000000000000     
  0.50000000000000000     
  0.50000000000000000     
  0.50000000000000000     
  0.50000000000000000     
  0.50000000000000000     
  0.50000000000000000     
  0.50000000000000000     
  0.50000000000000000     
  0.50000000000000000     
  0.50000000000000000     
  0.50000000000000000     
  0.50000000000000000     
  0.50000000000000000     
  0.50000000000000000     
  0.50000000000000000     
  0.50000000000000000     
  0.50000000000000000     
  0.50000000000000000     
  0.50000000000000000     
  0.50000000000000000     
  0.50000000000000000     
  0.50000000000000000     
  0.50000000000000000     
  0.50000000000000000     
  0.50000000000000000     
  0.50000000000000000     
  0.50000000000000000     
  0.50000000000000000     
  0.50000000000000000     
  0.50000000000000000     
  0.50000000000000000     
  0.50000000000000000     
  0.50000000000000000     
  0.50000000000000000     
  0.50000000000000000     
  0.50000000000000000     
  0.50000000000000000     
  0.50000000000000000     
  0.50000000000000000     
  0.50000000000000000     
  0.50000000000000000     
  0.50000000000000000     
  0.50000000000000000     
  0.50000000000000000     
  0.50000000000000000     
  0.50000000000000000     
  0.50000000000000000     
  0.50000000000000000     
  0.50000000000000000     
  0.50000000000000000     
  0.50000000000000000     
  0.50000000000000000     
  0.50000000000000000     
  0.50000000000000000     
  0.50000000000000000     
  0.50000000000000000     
  0.50000000000000000     
  0.50000000000000000     
  0.50000000000000000     
  0.50000000000000000     
  0.50000000000000000     
  0.50000000000000000     
  0.50000000000000000     
  0.50000000000000000     
  0.50000000000000000     
  0.50000000000000000     
  0.50000000000000000     
  0.50000000000000000     
  0.50000000000000000     
  0.50000000000000000     
  0.50000000000000000     
  0.50000000000000000     
  0.50000000000000000     
  0.50000000000000000     
  0.50000000000000000     
  0.50000000000000000     
  0.50000000000000000     
  0.50000000000000000     
  0.50000000000000000     
  0.50000000000000000     
  0.50000000000000000     
  0.50000000000000000     
  0.50000000000000000     
  0.50000000000000000     
  0.50000000000000000     
  0.50000000000000000     
  0.50000000000000000     
  0.50000000000000000     
  0.50000000000000000     
  0.50000000000000000     
  0.50000000000000000     
  0.50000000000000000     
  0.50000000000000000     
  0.50000000000000000     
  0.50000000000000000     
  0.50000000000000000     
  0.50000000000000000     
  0.50000000000000000     
  0.50000000000000000     
  0.50000000000000000     
  0.50000000000000000     
  0.50000000000000000     
  0.50000000000000000     
  0.50000000000000000     
  0.50000000000000000     
  0.50000000000000000     
  0.50000000000000000     
  0.50000000000000000     
  0.50000000000000000     
  0.50000000000000000     
  0.50000000000000000     
  0.50000000000000000     
  0.50000000000000000     
  0.50000000000000000     
  0.50000000000000000     
  0.50000000000000000     
  0.50000000000000000     
  0.50000000000000000     
  0.50000000000000000     
  0.50000000000000000     
  0.50000000000000000     
  0.50000000000000000     
  0.50000000000000000     
  0.50000000000000000     
  0.50000000000000000     
  0.50000000000000000     
  0.50000000000000000     
  0.50000000000000000     
  0.50000000000000000     
  0.50000000000000000     
  0.50000000000000000     
  0.50000000000000000     
  0.50000000000000000     
  0.50000000000000000     
  0.50000000000000000     
  0.50000000000000000     
  0.50000000000000000     
  0.50000000000000000     
  0.50000000000000000     
  0.50000000000000000     
  0.50000000000000000     
  0.50000000000000000     
  0.50000000000000000     
  0.50000000000000000     
  0.50000000000000000     
  0.50000000000000000     
  0.50000000000000000     
  0.50000000000000000     
  0.50000000000000000     
  0.50000000000000000     
  0.50000000000000000     
  0.50000000000000000     
  0.50000000000000000     
  0.50000000000000000     
  0.50000000000000000     
  0.50000000000000000     
  0.50000000000000000     
  0.50000000000000000     
  0.50000000000000000     
  0.50000000000000000     
  0.50000000000000000     
  0.50000000000000000     
  0.50000000000000000     
  0.50000000000000000     
  0.50000000000000000     
  0.50000000000000000     
  0.50000000000000000     
  0.50000000000000000     
  0.50000000000000000     
  0.50000000000000000     
  0.50000000000000000     
  0.50000000000000000     
  0.50000000000000000     
  0.50000000000000000     
  0.50000000000000000     
  0.50000000000000000     
  0.50000000000000000     
  0.50000000000000000     
  0.50000000000000000     
  0.50000000000000000     
  0.50000000000000000     
  0.50000000000000000     
  0.50000000000000000     
  0.50000000000000000     
  0.50000000000000000     
  0.50000000000000000     
  0.50000000000000000     
  0.50000000000000000     
  0.50000000000000000     
  0.50000000000000000     
  0.50000000000000000     
  0.50000000000000000     
  0.50000000000000000     
  0.50000000000000000     
  0.50000000000000000     
  0.50000000000000000     
  0.50000000000000000     
  0.50000000000000000     
  0.50000000000000000     
  0.50000000000000000     
  0.50000000000000000     
  0.50000000000000000     
  0.50000000000000000     
  0.50000000000000000     
  0.50000000000000000     
  0.50000000000000000     
  0.50000000000000000     
  0.50000000000000000     
  0.50000000000000000     
  0.50000000000000000     
  0.50000000000000000     
  0.50000000000000000     
  0.50000000000000000     
  0.50000000000000000     
  0.50000000000000000     
  0.50000000000000000     
  0.50000000000000000     
  0.50000000000000000     
  0.50000000000000000     
  0.50000000000000000     
  0.50000000000000000     
  0.50000000000000000     
  0.50000000000000000     
  0.50000000000000000     
  0.50000000000000000     
  0.50000000000000000     
  0.50000000000000000     
  0.50000000000000000     
  0.50000000000000000     
  0.50000000000000000     
  0.50000000000000000     
  0.50000000000000000     
  0.50000000000000000     
  0.50000000000000000     
  0.50000000000000000     
  0.50000000000000000     
  0.50000000000000000     
  0.50000000000000000     
  0.50000000000000000     
  0.50000000000000000     
  0.50000000000000000     
  0.50000000000000000     
  0.50000000000000000     
  0.50000000000000000     
  0.50000000000000000     
  0.50000000000000000     
  0.50000000000000000     
  0.50000000000000000     
  0.50000000000000000     
  0.50000000000000000     
  0.50000000000000000     
  0.50000000000000000     
  0.50000000000000000     
  0.50000000000000000     
  0.50000000000000000     
  0.50000000000000000     
  0.50000000000000000     
  0.50000000000000000     
  0.50000000000000000     
  0.50000000000000000     
  0.50000000000000000     
  0.50000000000000000     
  0.50000000000000000     
  0.50000000000000000     
  0.50000000000000000     
  0.50000000000000000     
  0.50000000000000000     
  0.50000000000000000     
  0.50000000000000000     
  0.50000000000000000     
  0.50000000000000000     
  0.50000000000000000     
  0.50000000000000000     
  0.50000000000000000     
  0.50000000000000000     
  0.50000000000000000     
  0.50000000000000000     
  0.50000000000000000     
  0.50000000000000000     
  0.50000000000000000     
  0.50000000000000000     
  0.50000000000000000     
  0.50000000000000000     
  0.50000000000000000     
  0.50000000000000000     
  0.50000000000000000     
  0.50000000000000000     
  0.50000000000000000     
  0.50000000000000000     
  0.50000000000000000     
  0.50000000000000000     
  0.50000000000000000     
  0.50000000000000000     
  0.50000000000000000     
  0.50000000000000000     
  0.50000000000000000     
  0.50000000000000000     
  0.50000000000000000     
  0.50000000000000000     
  0.50000000000000000     
  0.50000000000000000     
  0.50000000000000000     
  0.50000000000000000     
  0.50000000000000000     
  0.50000000000000000     
  0.50000000000000000     
  0.50000000000000000     
  0.50000000000000000     
  0.50000000000000000     
  0.50000000000000000     
  0.50000000000000000     
  0.50000000000000000     
  0.50000000000000000     
  0.50000000000000000     
  0.50000000000000000     
  0.50000000000000000     
  0.50000000000000000     
  0.50000000000000000     
  0.50000000000000000     
  0.50000000000000000     
  0.50000000000000000     
  0.50000000000000000     
  0.50000000000000000     
  0.50000000000000000     
  0.50000000000000000     
  0.50000000000000000     
  0.50000000000000000     
  0.50000000000000000     
  0.50000000000000000     
  0.50000000000000000     
  0.50000000000000000     
  0.50000000000000000     
  0.50000000000000000     
  0.50000000000000000     
  0.50000000000000000     
  0.50000000000000000     
  0.50000000000000000     
  0.50000000000000000     
  0.50000000000000000     
  0.50000000000000000     
  0.50000000000000000     
  0.50000000000000000     
  0.50000000000000000     
  0.50000000000000000     
  0.50000000000000000     
  0.50000000000000000     
  0.50000000000000000     
  0.50000000000000000     
  0.50000000000000000     
  0.50000000000000000     
  0.50000000000000000     
  0.50000000000000000     
  0.50000000000000000     
  0.50000000000000000     
  0.50000000000000000     
  0.50000000000000000     
  0.50000000000000000     
  0.50000000000000000     
  0.50000000000000000     
  0.50000000000000000     
  0.50000000000000000     
  0.50000000000000000     
  0.50000000000000000     
  0.50000000000000000     
  0.50000000000000000     
  0.50000000000000000     
  0.50000000000000000     
  0.50000000000000000     
  0.50000000000000000     
  0.50000000000000000     
  0.50000000000000000     
  0.50000000000000000     
  0.50000000000000000     
  0.50000000000000000     
  0.50000000000000000     
  0.50000000000000000     
  0.50000000000000000     
  0.50000000000000000     
  0.50000000000000000     
  0.50000000000000000     
  0.50000000000000000     
  0.50000000000000000     
  0.50000000000000000     
  0.50000000000000000     
  0.50000000000000000     
  0.50000000000000000     
  0.50000000000000000     
  0.50000000000000000     
  0.50000000000000000     
  0.50000000000000000     
  0.50000000000000000     
  0.50000000000000000     
  0.50000000000000000     
  0.50000000000000000     
  0.50000000000000000     
  0.50000000000000000     
  0.50000000000000000     
  0.50000000000000000     
  0.50000000000000000     
  0.50000000000000000     
  0.50000000000000000     
  0.50000000000000000     
  0.50000000000000000     
  0.50000000000000000     
  0.50000000000000000     
  0.50000000000000000     
  0.50000000000000000     
  0.50000000000000000     
  0.50000000000000000     
  0.50000000000000000     
  0.50000000000000000     
  0.50000000000000000     
  0.50000000000000000     
  0.50000000000000000     
  0.50000000000000000     
  0.50000000000000000     
  0.50000000000000000     
  0.50000000000000000     
  0.50000000000000000     
  0.50000000000000000     
  0.50000000000000000     
  0.50000000000000000     
  0.50000000000000000     
  0.50000000000000000     
  0.50000000000000000     
  0.50000000000000000     
  0.50000000000000000     
  0.50000000000000000     
  0.50000000000000000     
  0.50000000000000000     
  0.50000000000000000     
  0.50000000000000000     
  0.50000000000000000     
  0.50000000000000000     
  0.50000000000000000     
  0.50000000000000000     
  0.50000000000000000     
  0.50000000000000000     
  0.50000000000000000     
  0.50000000000000000     
  0.50000000000000000     
  0.50000000000000000     
  0.50000000000000000     
  0.50000000000000000     
  0.50000000000000000     
  0.50000000000000000     
  0.50000000000000000     
  0.50000000000000000     
  0.50000000000000000     
  0.50000000000000000     
  0.50000000000000000     
  0.50000000000000000     
  0.50000000000000000     
  0.50000000000000000     
  0.50000000000000000     
  0.50000000000000000     
  0.50000000000000000     
  0.50000000000000000     
  0.50000000000000000     
  0.50000000000000000     
  0.50000000000000000     
  0.50000000000000000     
  0.50000000000000000     
  0.50000000000000000     
  0.50000000000000000     
  0.50000000000000000     
  0.50000000000000000     
  0.50000000000000000     
  0.50000000000000000     
  0.50000000000000000     
