# vtk DataFile Version 5.1
Data.vtk
ASCII
DATASET UNSTRUCTURED_GRID
 
POINTS 500 float
  -2.1190054650757753       -5.0048570373752002        5.3712212058105138     
  -3.9765678108425164        5.4483204804166743       -2.8557107402379334     
  -6.4703372972709463       -5.2263706607836804       -2.9661832163427762     
   3.2879994054135806      -0.22277163942635894       -6.1621907067419865     
  0.36207796059490449       -8.4011191236741531      -0.67182697938885394     
   3.8406364075477031       -5.5835779798356970      -0.73368729025873747     
  0.85998054339540175        3.0419679880911414        6.8211010932511078     
  -4.0356003465945056       -2.4969558595943826        2.2821040898800096     
  -1.5632244124808268       -6.2928023855371178       -4.6327567865563699     
   3.5587343089236700       0.33717876702146421       -8.6481422235371674     
   5.7031588874250456      -0.78108337660719596       -3.3162028619223958     
   5.6049932108439942        2.8000731490731612       -5.4433564439573283     
  -5.6602867407321957        3.9349137614195371        3.8648143442012266     
  -6.1893046586532874        1.4504111197706024        3.5123572941704753     
   8.1565571007247613       -3.3150756038883826       -2.5357384543844055     
  0.47072758174253237        3.2421625509324041       -1.6976222599511281     
   2.0629568540318157       -5.6564177801338937       -6.9265069113585183     
  -1.4904110975259488       0.95418822892133170        4.6843000162157971     
  -3.2907972969917694       -4.2908653094786704        5.7500702688364145     
   1.3530953587430048        8.2263154720314695        1.6097879133127371     
  -3.5766502527842525       -8.5799579641330812        1.1964985874270153     
   5.8179740714574404        6.3732734357101561       -2.3263647258509859     
   3.1870220001474054       -2.2518097399046133        3.5890091166187337     
   2.0133892104081572       0.43694033275641980       0.24614876738820279     
   8.7084276286049302       -3.4631024384616209        1.1672332185729200     
  -6.5497136023075111        2.7643112459938610       -6.0627060833588402     
   2.3418535998890748       -3.4269831353166360        7.9363503210630233     
  -7.1070309974443742      -0.37000568630701836       -6.2186948848577472     
   4.1096861115862673       -3.1982836937213004       -7.5061565896965705     
   1.5387593306437082       -7.6878115238299731        3.3101051871164553     
  -1.1808064046608273        1.2107203263655570       -8.7813235067174578     
 -0.39984739828906785       -5.1918497464404751       0.93244192954249050     
   3.7169619685497803       -5.3258848594100483       -6.9275252619865562     
 -0.48760167886898986        2.1187695386169447        3.0475294807389357     
   2.7646015885252497        3.2140179583378190       -6.8816095418550551     
   1.8747363457805646      -0.58296672865335475       -8.9831554860320733     
  -2.0928439288168779       0.10899820423178248       -7.1649625191055177     
   1.1266691842169911       -5.7590408388543404        2.1723720378392706     
   3.3534434280349745        6.7424052733336826        1.9193602804361201     
   2.1664651147731684       -5.9953937975512339        1.4871274896297035     
  -9.2107004225965454        2.0209423551407957      -0.43149663354457840     
   1.3600965809285146       -3.0358300232556412        4.5138688619349008     
   2.7058791327047511       -8.7354303893612411       0.17223607938506560     
   6.0156775562563158        5.8911234704930475        2.8842994276517548     
   4.7393596500797779       -5.9858084186586655       -5.4641563598295573     
   3.0293922321698368       -8.6291754251729760        1.1860180579276640     
  -1.9417310777171539       -7.3056473465152925       0.67638152196933887     
   4.9872884173527394       -4.1204683404748277       -4.3823843597785528     
  -3.1373216442009610       -5.5673181848646296       -5.8025346349637541     
  -6.9207409515989333       -4.0023456522031422       0.37066501223151693     
  -6.1605933707055138       -2.3588201625636440        4.7182354729590950     
   3.9339529567311025       -6.0478369809116748       -6.1650867670203242     
   4.5486627127316801       -6.8592821631151519      -0.73542891130585575     
  -1.1931402462848837        2.4879740744691561       -2.0642235431842715     
  -8.4758621769865190       -1.3243751686489988        2.4769500332290941     
  0.59464048178155093        3.4556246350640185       -3.0897025005142802     
   6.5338042788723643        3.2299814611313993        3.0497916940580461     
   1.3470880191166144       -7.8251358057269922       -2.6254101347691581     
   5.1390490316787174        1.4890301414117999       -6.8388557608401586     
  -4.9764835120910957       -6.0616816655622303        4.5268184304918488     
   1.1705629498465737       -6.0589909097922163        3.6396568418140629     
  -6.6292035337621131        1.3005498525467589        4.4589208618012375     
  -5.5959269385325845        2.3837808721180713        4.0353995794585700     
   5.0998854112308525       -5.4999585433174669       -4.6224107543620763     
   6.6150523155363050       -3.5601956809731714      -0.57505564981662738     
  -2.9496473646260535       -2.3737795328110027       -5.7784024328116281     
   7.3178181651072203       -5.0096568979519036       -1.0505052173836482     
  -4.8691133222356902       -4.2301586988630957        3.3982004492849942     
   3.9502903186580589        4.3013140748971157        3.0965783709963577     
   8.0156199787893678E-002  -1.9857931154452362       -1.0828709686376210     
  -5.5043530056757177        2.6865207879071638       -4.5353258354051533     
   1.9353559148329795       -8.0753287024073259        4.4018950444607796     
  -8.2210319334389474       -1.5149007314018805        4.3897936660089139     
  -5.7602536167730509       -4.1443462620311360        4.5486953954119844     
   3.8996315732056686        6.4839454504119569       -2.1618294742048301     
   4.6399959485873410       -5.2417491669794556        2.5417519526595371     
   7.2592174942243140E-002   1.1724377577294807        8.2825537423343789     
  0.40595986515632193      -0.90811695886090738       -6.0620393942709354     
   4.3004646260212427       -3.5279403571759178      -0.41791456184789566     
   2.6494938988681240       -4.0551553967372120        2.3045417541654154     
   3.0051657248169934        8.2660953838954558        1.9014421624713567     
   3.4683099338302927       -5.4762389628372201       -4.6290953289741266     
   3.2425476819009544       -6.7621818822675932        5.7580028656333990     
  0.74716466716004071       -4.0581107166933776        8.2275299426919943     
   8.0852005129423308       0.46953177088406423        2.1421486092407322     
 -0.18156211829774796       -4.0805287077308998        1.5893744500959865     
  -5.0027292019145202       -5.9146603793582102        2.0834145009372356     
  0.71902035767972350       -8.2476493929091710       -3.7097379512764892     
 -0.56266410179240745        2.8607293299525041        7.8157298472065744     
 -0.27147802527933346        6.2558719767479083       -1.7466050590289126     
  -2.7384826257610251      -0.30036386617119021       -2.3747369821548805     
   1.3569465668162080       -1.0474068417849738        8.8451016741952326     
  -1.2262141963864563        6.5565914442100635        3.1251408898058237     
 -0.57462600500356520      -0.22207166793663727       -9.2452912427901328     
   5.8276392853494157       -2.1148754335160356      -0.50886941745869341     
   2.0715095414149567       -2.3398005917039888       -5.5073504770329347     
   5.3883650479353671        1.7315730670284737        2.4589537587752388     
  -7.1779775613395955       -5.0184699517389770       0.70269615193883961     
   3.3791983622923709       -3.1962716954105539        5.9019320431166982     
   5.3632511230861812       -6.4862052037408988        1.2555809852065658     
   6.1806475458556669       -2.4522194211808781       -6.0483964367045484     
   5.5561697553093889        6.0640809075958551       -4.7545873661802345     
   4.5022414755645990       -2.3523817461281218       -6.3789439789500371     
   3.6102547420603051        5.6306476275329498       -6.5606227594307382     
  -5.3496947748330452       -7.7170264510563955       -1.3200961505991711     
  -3.4477053802948197        2.9613446703952020        4.7022997024982125     
   5.9809648564782023       -2.7387577275029678       -5.1050730952096863     
  -3.8265383957617525       -5.6923466039679562       -3.2478023840017225     
  -2.9454653216540718       -3.9337807694557094       -6.7664489181137225E-002
  -7.1127759309883729E-002  -5.6498543950013023       -1.9988040365134470     
  -2.7034308666950988        6.2172446813415636       0.30651645841025177     
   6.7330681838364930       0.31972183525136993       -1.1172223584250720     
  0.54211275327773856       0.17028173151238413       -9.4646570470232678     
   7.2887294432801690       -3.7177769382687265       0.34064197570718274     
  -4.5261401365844129      -0.12971657028425446        1.5930603588010381     
  0.93724397717806807        4.3998669420508580       -5.4198468403031210     
   1.0550672196496744       -5.2606312172290508       -4.7882594443363340     
  -1.0416778295283102       -2.8768300535269375       -4.2579850576552429     
   2.6160320366915388        1.7716384997495633        2.6495711668554836     
   1.5348329204722906       -7.3564444609453314        1.7484552670312645     
   4.3991248504740899       -3.5245309855086893       -4.9453733192103639     
   3.7779309692821408      -0.47191513228191578       -3.3071812064621020     
 -0.65791392234222057      -0.42717599065571893       -3.5503096002136170     
  -7.8997522326091900        1.6751540987204387        4.2826614177653823     
  0.91147836494275281       -4.2052210912173180        4.5850745227443968     
[...]
POINT_DATA  500
SCALARS radius float
LOOKUP_TABLE default
  0.50000000000000000     
  0.50000000000000000     
  0.50000000000000000     
  0.50000000000000000     
  0.50000000000000000     
  0.50000000000000000     
  0.50000000000000000     
  0.50000000000000000     
  0.50000000000000000     
  0.50000000000000000     
  0.50000000000000000     
  0.50000000000000000     
  0.50000000000000000     
  0.50000000000000000     
  0.50000000000000000     
  0.50000000000000000     
  0.50000000000000000     
  0.50000000000000000     
  0.50000000000000000     
  0.50000000000000000     
  0.50000000000000000     
  0.50000000000000000     
  0.50000000000000000     
  0.50000000000000000     
  0.50000000000000000     
  0.50000000000000000     
  0.50000000000000000     
  0.50000000000000000     
  0.50000000000000000     
  0.50000000000000000     
  0.50000000000000000     
  0.50000000000000000     
  0.50000000000000000     
  0.50000000000000000     
  0.50000000000000000     
  0.50000000000000000     
  0.50000000000000000     
  0.50000000000000000     
  0.50000000000000000     
  0.50000000000000000     
  0.50000000000000000     
  0.50000000000000000     
  0.50000000000000000     
  0.50000000000000000     
  0.50000000000000000     
  0.50000000000000000     
  0.50000000000000000     
  0.50000000000000000     
  0.50000000000000000     
  0.50000000000000000     
  0.50000000000000000     
  0.50000000000000000     
  0.50000000000000000     
  0.50000000000000000     
  0.50000000000000000     
  0.50000000000000000     
  0.50000000000000000     
  0.50000000000000000     
  0.50000000000000000     
  0.50000000000000000     
  0.50000000000000000     
  0.50000000000000000     
  0.50000000000000000     
  0.50000000000000000     
  0.50000000000000000     
  0.50000000000000000     
  0.50000000000000000     
  0.50000000000000000     
  0.50000000000000000     
  0.50000000000000000     
  0.50000000000000000     
  0.50000000000000000     
  0.50000000000000000     
  0.50000000000000000     
  0.50000000000000000     
  0.50000000000000000     
  0.50000000000000000     
  0.50000000000000000     
  0.50000000000000000     
  0.50000000000000000     
  0.50000000000000000     
  0.50000000000000000     
  0.50000000000000000     
  0.50000000000000000     
  0.50000000000000000     
  0.50000000000000000     
  0.50000000000000000     
  0.50000000000000000     
  0.50000000000000000     
  0.50000000000000000     
  0.50000000000000000     
  0.50000000000000000     
  0.50000000000000000     
  0.50000000000000000     
  0.50000000000000000     
  0.50000000000000000     
  0.50000000000000000     
  0.50000000000000000     
  0.50000000000000000     
  0.50000000000000000     
  0.50000000000000000     
  0.50000000000000000     
  0.50000000000000000     
  0.50000000000000000     
  0.50000000000000000     
  0.50000000000000000     
  0.50000000000000000     
  0.50000000000000000     
  0.50000000000000000     
  0.50000000000000000     
  0.50000000000000000     
  0.50000000000000000     
  0.50000000000000000     
  0.50000000000000000     
  0.50000000000000000     
  0.50000000000000000     
  0.50000000000000000     
  0.50000000000000000     
  0.50000000000000000     
  0.50000000000000000     
  0.50000000000000000     
  0.50000000000000000     
  0.50000000000000000     
  0.50000000000000000     
  0.50000000000000000     
  0.50000000000000000     
  0.50000000000000000     
  0.50000000000000000     
  0.50000000000000000     
  0.50000000000000000     
  0.50000000000000000     
  0.50000000000000000     
  0.50000000000000000     
  0.50000000000000000     
  0.50000000000000000     
  0.50000000000000000     
  0.50000000000000000     
  0.50000000000000000     
  0.50000000000000000     
  0.50000000000000000     
  0.50000000000000000     
  0.50000000000000000     
  0.50000000000000000     
  0.50000000000000000     
  0.50000000000000000     
  0.50000000000000000     
  0.50000000000000000     
  0.50000000000000000     
  0.50000000000000000     
  0.50000000000000000     
  0.50000000000000000     
  0.50000000000000000     
  0.50000000000000000     
  0.50000000000000000     
  0.50000000000000000     
  0.50000000000000000     
  0.50000000000000000     
  0.50000000000000000     
  0.50000000000000000     
  0.50000000000000000     
  0.50000000000000000     
  0.50000000000000000     
  0.50000000000000000     
  0.50000000000000000     
  0.50000000000000000     
  0.50000000000000000     
  0.50000000000000000     
  0.50000000000000000     
  0.50000000000000000     
  0.50000000000000000     
  0.50000000000000000     
  0.50000000000000000     
  0.50000000000000000     
  0.50000000000000000     
  0.50000000000000000     
  0.50000000000000000     
  0.50000000000000000     
  0.50000000000000000     
  0.50000000000000000     
  0.50000000000000000     
  0.50000000000000000     
  0.50000000000000000     
  0.50000000000000000     
  0.50000000000000000     
  0.50000000000000000     
  0.50000000000000000     
  0.50000000000000000     
  0.50000000000000000     
  0.50000000000000000     
  0.50000000000000000     
  0.50000000000000000     
  0.50000000000000000     
  0.50000000000000000     
  0.50000000000000000     
  0.50000000000000000     
  0.50000000000000000     
  0.50000000000000000     
  0.50000000000000000     
  0.50000000000000000     
  0.50000000000000000     
  0.50000000000000000     
  0.50000000000000000     
  0.50000000000000000     
  0.50000000000000000     
  0.50000000000000000     
  0.50000000000000000     
  0.50000000000000000     
  0.50000000000000000     
  0.50000000000000000     
  0.50000000000000000     
  0.50000000000000000     
  0.50000000000000000     
  0.50000000000000000     
  0.50000000000000000     
  0.50000000000000000     
  0.50000000000000000     
  0.50000000000000000     
  0.50000000000000000     
  0.50000000000000000     
  0.50000000000000000     
  0.50000000000000000     
  0.50000000000000000     
  0.50000000000000000     
  0.50000000000000000     
  0.50000000000000000     
  0.50000000000000000     
  0.50000000000000000     
  0.50000000000000000     
  0.50000000000000000     
  0.50000000000000000     
  0.50000000000000000     
  0.50000000000000000     
  0.50000000000000000     
  0.50000000000000000     
  0.50000000000000000     
  0.50000000000000000     
  0.50000000000000000     
  0.50000000000000000     
  0.50000000000000000     
  0.50000000000000000     
  0.50000000000000000     
  0.50000000000000000     
  0.50000000000000000     
  0.50000000000000000     
  0.50000000000000000     
  0.50000000000000000     
  0.50000000000000000     
  0.50000000000000000     
  0.50000000000000000     
  0.50000000000000000     
  0.50000000000000000     
  0.50000000000000000     
  0.50000000000000000     
  0.50000000000000000     
  0.50000000000000000     
  0.50000000000000000     
  0.50000000000000000     
  0.50000000000000000     
  0.50000000000000000     
  0.50000000000000000     
  0.50000000000000000     
  0.50000000000000000     
  0.50000000000000000     
  0.50000000000000000     
  0.50000000000000000     
  0.50000000000000000     
  0.50000000000000000     
  0.50000000000000000     
  0.50000000000000000     
  0.50000000000000000     
  0.50000000000000000     
  0.50000000000000000     
  0.50000000000000000     
  0.50000000000000000     
  0.50000000000000000     
  0.50000000000000000     
  0.50000000000000000     
  0.50000000000000000     
  0.50000000000000000     
  0.50000000000000000     
  0.50000000000000000     
  0.50000000000000000     
  0.50000000000000000     
  0.50000000000000000     
  0.50000000000000000     
  0.50000000000000000     
  0.50000000000000000     
  0.50000000000000000     
  0.50000000000000000     
  0.50000000000000000     
  0.50000000000000000     
  0.50000000000000000     
  0.50000000000000000     
  0.50000000000000000     
  0.50000000000000000     
  0.50000000000000000     
  0.50000000000000000     
  0.50000000000000000     
  0.50000000000000000     
  0.50000000000000000     
  0.50000000000000000     
  0.50000000000000000     
  0.50000000000000000     
  0.50000000000000000     
  0.50000000000000000     
  0.50000000000000000     
  0.50000000000000000     
  0.50000000000000000     
  0.50000000000000000     
  0.50000000000000000     
  0.50000000000000000     
  0.50000000000000000     
  0.50000000000000000     
  0.50000000000000000     
  0.50000000000000000     
  0.50000000000000000     
  0.50000000000000000     
  0.50000000000000000     
  0.50000000000000000     
  0.50000000000000000     
  0.50000000000000000     
  0.50000000000000000     
  0.50000000000000000     
  0.50000000000000000     
  0.50000000000000000     
  0.50000000000000000     
  0.50000000000000000     
  0.50000000000000000     
  0.50000000000000000     
  0.50000000000000000     
  0.50000000000000000     
  0.50000000000000000     
  0.50000000000000000     
  0.50000000000000000     
  0.50000000000000000     
  0.50000000000000000     
  0.50000000000000000     
  0.50000000000000000     
  0.50000000000000000     
  0.50000000000000000     
  0.50000000000000000     
  0.50000000000000000     
  0.50000000000000000     
  0.50000000000000000     
  0.50000000000000000     
  0.50000000000000000     
  0.50000000000000000     
  0.50000000000000000     
  0.50000000000000000     
  0.50000000000000000     
  0.50000000000000000     
  0.50000000000000000     
  0.50000000000000000     
  0.50000000000000000     
  0.50000000000000000     
  0.50000000000000000     
  0.50000000000000000     
  0.50000000000000000     
  0.50000000000000000     
  0.50000000000000000     
  0.50000000000000000     
  0.50000000000000000     
  0.50000000000000000     
  0.50000000000000000     
  0.50000000000000000     
  0.50000000000000000     
  0.50000000000000000     
  0.50000000000000000     
  0.50000000000000000     
  0.50000000000000000     
  0.50000000000000000     
  0.50000000000000000     
  0.50000000000000000     
  0.50000000000000000     
  0.50000000000000000     
  0.50000000000000000     
  0.50000000000000000     
  0.50000000000000000     
  0.50000000000000000     
  0.50000000000000000     
  0.50000000000000000     
  0.50000000000000000     
  0.50000000000000000     
  0.50000000000000000     
  0.50000000000000000     
  0.50000000000000000     
  0.50000000000000000     
  0.50000000000000000     
  0.50000000000000000     
  0.50000000000000000     
  0.50000000000000000     
  0.50000000000000000     
  0.50000000000000000     
  0.50000000000000000     
  0.50000000000000000     
  0.50000000000000000     
  0.50000000000000000     
  0.50000000000000000     
  0.50000000000000000     
  0.50000000000000000     
  0.50000000000000000     
  0.50000000000000000     
  0.50000000000000000     
  0.50000000000000000     
  0.50000000000000000     
  0.50000000000000000     
  0.50000000000000000     
  0.50000000000000000     
  0.50000000000000000     
  0.50000000000000000     
  0.50000000000000000     
  0.50000000000000000     
  0.50000000000000000     
  0.50000000000000000     
  0.50000000000000000     
  0.50000000000000000     
  0.50000000000000000     
  0.50000000000000000     
  0.50000000000000000     
  0.50000000000000000     
  0.50000000000000000     
  0.50000000000000000     
  0.50000000000000000     
  0.50000000000000000     
  0.50000000000000000     
  0.50000000000000000     
  0.50000000000000000     
  0.50000000000000000     
  0.50000000000000000     
  0.50000000000000000     
  0.50000000000000000     
  0.50000000000000000     
  0.50000000000000000     
  0.50000000000000000     
  0.50000000000000000     
  0.50000000000000000     
  0.50000000000000000     
  0.50000000000000000     
  0.50000000000000000     
  0.50000000000000000     
  0.50000000000000000     
  0.50000000000000000     
  0.50000000000000000     
  0.50000000000000000     
  0.50000000000000000     
  0.50000000000000000     
  0.50000000000000000     
  0.50000000000000000     
  0.50000000000000000     
  0.50000000000000000     
  0.50000000000000000     
  0.50000000000000000     
  0.50000000000000000     
  0.50000000000000000     
  0.50000000000000000     
  0.50000000000000000     
  0.50000000000000000     
  0.50000000000000000     
  0.50000000000000000     
  0.50000000000000000     
  0.50000000000000000     
  0.50000000000000000     
  0.50000000000000000     
  0.50000000000000000     
  0.50000000000000000     
  0.50000000000000000     
  0.50000000000000000     
  0.50000000000000000     
  0.50000000000000000     
  0.50000000000000000     
  0.50000000000000000     
  0.50000000000000000     
  0.50000000000000000     
  0.50000000000000000     
  0.50000000000000000     
  0.50000000000000000     
  0.50000000000000000     
  0.50000000000000000     
  0.50000000000000000     
  0.50000000000000000     
  0.50000000000000000     
  0.50000000000000000     
  0.50000000000000000     
  0.50000000000000000     
  0.50000000000000000     
  0.50000000000000000     
  0.50000000000000000     
  0.50000000000000000     
  0.50000000000000000     
  0.50000000000000000     
  0.50000000000000000     
  0.50000000000000000     
  0.50000000000000000     
  0.50000000000000000     
  0.50000000000000000     
  0.50000000000000000     
  0.50000000000000000     
  0.50000000000000000     
  0.50000000000000000     
  0.50000000000000000     
