# vtk DataFile Version 5.1
Data.vtk
ASCII
DATASET UNSTRUCTURED_GRID
 
POINTS 500 float
   9.0919613749069086       -2.1205809940864322        1.7541405030667871     
   2.1195168418134749       -6.1830829628939989       -1.4397546176895375     
  0.30146134351659881       -6.7577810222427503       0.60561436723958451     
   1.9087291038491625       -6.6816055132727961       -2.2826432630404225     
   8.2716040416740597       -4.0697313256130752       -2.1150912065286933     
   1.8469532593904506E-002  -8.3355403500244503       -1.6974610602982219     
   3.8038347454192363       -7.3148614465135529        2.6348940531172289     
   3.7689994287898290       -6.7080622406542059       0.66025721041165930     
   7.5104239937666062       -3.2707948025340321       -2.3613565961196925     
   1.2625606969754872       -6.4532031012631466       -4.2433421367732809     
   6.5865775712244021       -6.5273864912494943       -1.9586830591780362     
 -0.45150647690523232       -7.8246289840774548       -3.5087050186816282     
   4.9667274676772601       -6.0997142450913167        3.6593255747764228     
   1.4553173158141333       -8.4035929570151957      -0.10334443928703392     
 -0.92486271995360858       -7.7743399142730869       -1.0935482897368720     
   8.2487168051629247       -4.5389658042105347       -1.2096299833379545     
   7.1400364446697502       -5.5336600705563450       -2.9407751721834812     
   7.3261544147408921       -6.0029665293319550       0.70773992900031368     
   4.2455170496660832       -5.9583481338708504        4.4853690313779415     
   8.2871441094079614       -2.3266960088087001       -3.9649420002474778     
   4.6247340915522033       -6.0515264190235474       -1.0908469283942919     
   5.1745187586949530       -3.0995613631862384       -7.2928484911659224     
   1.4676947014768584       -5.9225213740994480        5.4238744303557391     
   2.5742430021984473       -7.0788103340075024        4.1910654023135665     
   3.9172496671188290       -7.4834975776516517       -1.1402723540580106     
   1.0707573688210252       -5.9779926814615676       -7.2876464526654585     
 -0.35640304852289784       -8.0758330559361422        2.0964360625720304     
 -0.64211314803912700       -6.6981333749400882       -3.6813769545366202     
   5.3786132570626783       -4.7212384477099647       -6.2472673665897904     
   8.2904247206613491       -3.6693713498856946        2.8377423674301196     
 -0.85250666579919943       -9.1461599614183147       -2.4230491177892106     
   7.4778238291728290       -5.0155000329755985        3.0157961484358990     
   6.4799573767562100       -4.1907590273639448       -5.5084222698568679     
   2.0074817062601444       -8.3373802149995306       0.89392517214926071     
   3.5823579450899170       -5.5109749509279524       -1.4541841897469496     
   3.9274925147743835       -4.7140047364406561       -5.8422110099573707     
   4.6486003021416993       -8.2841424278898064       -9.2969378738396113E-002
   4.2019296925464795       -5.9040942205908866        6.1422123199030247     
   6.5991476528368276       -5.4456534441570712       0.30589280401520974     
   5.0168619590530978       -5.3507892378817834        5.9626088352488980     
   1.2476524376702767       -6.4041523937060170        1.3840728555321078     
   5.4518377761049415       -7.6189041941753830        1.5162060127804224     
   5.3406115798147304       -5.8411232680567364        5.1533764762226024     
  0.57956297911632115       -8.9466293310925948        3.1418736843328356     
   4.4322488256776449       -6.3567076996870266       -5.4934438587664021     
   6.5714806743811263       -5.7293706480816917       -3.7420387628338907     
   3.5600705392882501       -5.3227947327257663        4.1265817946144585     
   4.4978055421941106       -8.2956616939138090       -1.0814408791037275     
   5.5375802149569999       -5.5751448669206862       -3.3922518627505234     
  0.94258377517949399       -6.7725589787693865      -0.16281119258201018     
   2.1476361771732213       -9.1821164383096416       -1.1523983456336269     
   7.1706780041450546       -4.9305956111331053       -3.8108351118769970     
   4.8221667211974388       -5.9689430376122061      -0.11266226435618072     
   1.1350444739771934       -6.6949002972532847        3.8991303885176420     
   1.0314944450156374       -6.7334097218270905        5.0258174018815787     
   1.7132694695935633       -7.8800796130229189       -5.0186558848496885     
   2.0106586259439778       -6.2298302639850549        3.7683703909669308     
   5.9250732736024814       -5.0221483304792400       -5.4652480880738796     
  0.66559059432888923       -5.8645915572821874       -4.8888849665901928     
  0.77326787108016404       -7.6112587298616345        4.0857996768349878     
   6.2111789011676777       -4.5447721058741450        7.7658781888003695E-002
  -2.7557322879283555       -8.5135279476306494       -3.1899924605315917     
   1.9333176287018863       -5.9329884105846515        7.1583992817529465     
  0.73245821147984247       -9.4211298735661284      -0.97718762634552436     
   5.4117984823600240       -3.7884227744385415       -6.6066919189059687     
   3.8537884624551548       -6.0352137649255351       -6.2430951582011343     
   3.0167058623600780       -7.8863293600369913       -1.3033591159042945     
   5.3539508918658987       -7.0425030302813694        3.4606246748133431     
   9.0910116588563543       -1.0912443390522610      -0.78829636167586037     
   1.5826859706474345       -6.9326970158472951        3.0370933754975846     
   3.4212998931586966       -7.0474743738065140       -5.3553478010300548     
   6.1638968086576780       -3.2302082730255535        5.8373878914924546     
   2.0626074877980014       -8.3487647470457116        4.0365704329718239     
   7.7777661820909350       -3.4825705986176909        1.2203980575700888     
  0.16040189690623305       -6.4758274857335216        4.0307133391453549     
   2.6255563413944656       -6.3043979503742094       -2.8695729607796863     
 -0.22069153248089302       -7.9401418716608401        5.2108052401871721     
   3.0801302141613740       -6.9186760425825824      -0.68711680911493178     
   1.5592190661465866       -9.3643122323105334      -0.36047056447780695     
   8.6244923849254640       -3.9486804172839816      -0.35314623296144093     
   9.0672668689813918       -2.3039439897849237       0.56822368081898245     
   1.8387958451664674       -5.7388267191951154       -2.6108340307009583     
   2.9495979712400109       -7.8349880500844691        2.5980689354485764     
   4.4643880440446333       -4.9803912026514938        3.6128143362493979     
  -2.2337664594170765       -8.1185418150064415        4.3768097653136557     
   1.6939829998021292       -7.2334106773798617        2.0893863156159207     
   4.5251852887386352       -6.1492853174074060        1.0030904157937983     
  0.25202629339935700       -9.0954105303679516       -2.7313077830614509     
  -2.5622856506554124       -8.2161705284039392       0.33255615750525463     
   3.8248031159416453       -5.6823949917807299       -3.8807943181949129     
   5.9653066666340662       -5.6229141024795188       -2.4138888140853365     
   2.1093214104805065       -9.0067716293141338       -2.1386896500808881     
   5.4873149433452131       -7.7517652928325056      -0.21828217775017206     
   7.1169017630980607       -4.1939385281785189       -2.3421406653499468     
   7.1758460369285180       -2.7378003783376754       -5.5488192070329747     
   4.0918537718972665       -7.7322936296229612       -3.7029367101951616     
  -1.1858324713313571       -7.6077322228076785        3.8468126150545725     
   2.3106314465414965       -5.7160579039372834       0.75388596810079167     
   7.7517930779236384       -3.4990448407446038        4.2327647382219249     
   7.2255495725793741       -2.6484994763104903        3.7327533656125751     
   8.4369542813943816       -1.7193310888517881       -3.1847410358715589     
  -2.3402062691743746       -8.2318846134750565       -4.0759939049854736     
   7.8478440676091585       -2.2256594393214058       -4.8616562481269128     
   2.8988193510927971       -5.9483073531023472      -0.85360711324232708     
 -0.79074031943630074       -6.9503338365081184       0.52477791147595132     
   2.2417215916077184       -6.3855204358154287        1.4940573642754298     
   8.3509015267190243       -1.3720044925119523       -4.3134111959423560     
   4.7011801907642541       -5.7124540130952877       -4.3642295483428377     
   3.8477513591848713       -8.6780509458065822       0.36160747817604683     
   4.5106212370882632       -5.0637602171769522      -0.40681497085927437     
  -1.4428885054229992       -9.3427012934040778      -0.93795563190298903     
   5.2033892072856851       -6.8598743104530797       0.14010972460501075     
  -1.7584046038505887       -8.6934948033231674       -3.4026897323499625     
   9.0607959664493034       -1.8010654128390082       -1.4966352120720134     
  0.31708458985647175       -9.4947273356536126        1.4099507615075207E-002
   7.6956644138708779       -4.6917863346606490       -2.9939234035867761     
  0.65490318542274228       -8.7714500444795647       -3.5891076183227408     
   1.4611450428770152       -5.7571533889683879       -3.5456196238745270     
   4.9859136744362553       -4.7112872998802251       -5.0886054212493068     
   4.5722972799031196E-002  -8.7608386718616291       0.78723104361566187     
   1.7809727660914971       -6.3327624412315586      -0.50408070202669808     
   4.2315806546831389       -5.0546952897960242        2.5112670206613688     
  -3.1443775157601839       -8.2569614574697372        2.4091741043493577     
  -1.6046387398177404       -7.8642878334802493       -1.8214359240913045     
  -1.3937026395804109       -9.3070249995819321        1.2985721399749113     
[...]
POINT_DATA  500
SCALARS radius float
LOOKUP_TABLE default
  0.50000000000000000     
  0.50000000000000000     
  0.50000000000000000     
  0.50000000000000000     
  0.50000000000000000     
  0.50000000000000000     
  0.50000000000000000     
  0.50000000000000000     
  0.50000000000000000     
  0.50000000000000000     
  0.50000000000000000     
  0.50000000000000000     
  0.50000000000000000     
  0.50000000000000000     
  0.50000000000000000     
  0.50000000000000000     
  0.50000000000000000     
  0.50000000000000000     
  0.50000000000000000     
  0.50000000000000000     
  0.50000000000000000     
  0.50000000000000000     
  0.50000000000000000     
  0.50000000000000000     
  0.50000000000000000     
  0.50000000000000000     
  0.50000000000000000     
  0.50000000000000000     
  0.50000000000000000     
  0.50000000000000000     
  0.50000000000000000     
  0.50000000000000000     
  0.50000000000000000     
  0.50000000000000000     
  0.50000000000000000     
  0.50000000000000000     
  0.50000000000000000     
  0.50000000000000000     
  0.50000000000000000     
  0.50000000000000000     
  0.50000000000000000     
  0.50000000000000000     
  0.50000000000000000     
  0.50000000000000000     
  0.50000000000000000     
  0.50000000000000000     
  0.50000000000000000     
  0.50000000000000000     
  0.50000000000000000     
  0.50000000000000000     
  0.50000000000000000     
  0.50000000000000000     
  0.50000000000000000     
  0.50000000000000000     
  0.50000000000000000     
  0.50000000000000000     
  0.50000000000000000     
  0.50000000000000000     
  0.50000000000000000     
  0.50000000000000000     
  0.50000000000000000     
  0.50000000000000000     
  0.50000000000000000     
  0.50000000000000000     
  0.50000000000000000     
  0.50000000000000000     
  0.50000000000000000     
  0.50000000000000000     
  0.50000000000000000     
  0.50000000000000000     
  0.50000000000000000     
  0.50000000000000000     
  0.50000000000000000     
  0.50000000000000000     
  0.50000000000000000     
  0.50000000000000000     
  0.50000000000000000     
  0.50000000000000000     
  0.50000000000000000     
  0.50000000000000000     
  0.50000000000000000     
  0.50000000000000000     
  0.50000000000000000     
  0.50000000000000000     
  0.50000000000000000     
  0.50000000000000000     
  0.50000000000000000     
  0.50000000000000000     
  0.50000000000000000     
  0.50000000000000000     
  0.50000000000000000     
  0.50000000000000000     
  0.50000000000000000     
  0.50000000000000000     
  0.50000000000000000     
  0.50000000000000000     
  0.50000000000000000     
  0.50000000000000000     
  0.50000000000000000     
  0.50000000000000000     
  0.50000000000000000     
  0.50000000000000000     
  0.50000000000000000     
  0.50000000000000000     
  0.50000000000000000     
  0.50000000000000000     
  0.50000000000000000     
  0.50000000000000000     
  0.50000000000000000     
  0.50000000000000000     
  0.50000000000000000     
  0.50000000000000000     
  0.50000000000000000     
  0.50000000000000000     
  0.50000000000000000     
  0.50000000000000000     
  0.50000000000000000     
  0.50000000000000000     
  0.50000000000000000     
  0.50000000000000000     
  0.50000000000000000     
  0.50000000000000000     
  0.50000000000000000     
  0.50000000000000000     
  0.50000000000000000     
  0.50000000000000000     
  0.50000000000000000     
  0.50000000000000000     
  0.50000000000000000     
  0.50000000000000000     
  0.50000000000000000     
  0.50000000000000000     
  0.50000000000000000     
  0.50000000000000000     
  0.50000000000000000     
  0.50000000000000000     
  0.50000000000000000     
  0.50000000000000000     
  0.50000000000000000     
  0.50000000000000000     
  0.50000000000000000     
  0.50000000000000000     
  0.50000000000000000     
  0.50000000000000000     
  0.50000000000000000     
  0.50000000000000000     
  0.50000000000000000     
  0.50000000000000000     
  0.50000000000000000     
  0.50000000000000000     
  0.50000000000000000     
  0.50000000000000000     
  0.50000000000000000     
  0.50000000000000000     
  0.50000000000000000     
  0.50000000000000000     
  0.50000000000000000     
  0.50000000000000000     
  0.50000000000000000     
  0.50000000000000000     
  0.50000000000000000     
  0.50000000000000000     
  0.50000000000000000     
  0.50000000000000000     
  0.50000000000000000     
  0.50000000000000000     
  0.50000000000000000     
  0.50000000000000000     
  0.50000000000000000     
  0.50000000000000000     
  0.50000000000000000     
  0.50000000000000000     
  0.50000000000000000     
  0.50000000000000000     
  0.50000000000000000     
  0.50000000000000000     
  0.50000000000000000     
  0.50000000000000000     
  0.50000000000000000     
  0.50000000000000000     
  0.50000000000000000     
  0.50000000000000000     
  0.50000000000000000     
  0.50000000000000000     
  0.50000000000000000     
  0.50000000000000000     
  0.50000000000000000     
  0.50000000000000000     
  0.50000000000000000     
  0.50000000000000000     
  0.50000000000000000     
  0.50000000000000000     
  0.50000000000000000     
  0.50000000000000000     
  0.50000000000000000     
  0.50000000000000000     
  0.50000000000000000     
  0.50000000000000000     
  0.50000000000000000     
  0.50000000000000000     
  0.50000000000000000     
  0.50000000000000000     
  0.50000000000000000     
  0.50000000000000000     
  0.50000000000000000     
  0.50000000000000000     
  0.50000000000000000     
  0.50000000000000000     
  0.50000000000000000     
  0.50000000000000000     
  0.50000000000000000     
  0.50000000000000000     
  0.50000000000000000     
  0.50000000000000000     
  0.50000000000000000     
  0.50000000000000000     
  0.50000000000000000     
  0.50000000000000000     
  0.50000000000000000     
  0.50000000000000000     
  0.50000000000000000     
  0.50000000000000000     
  0.50000000000000000     
  0.50000000000000000     
  0.50000000000000000     
  0.50000000000000000     
  0.50000000000000000     
  0.50000000000000000     
  0.50000000000000000     
  0.50000000000000000     
  0.50000000000000000     
  0.50000000000000000     
  0.50000000000000000     
  0.50000000000000000     
  0.50000000000000000     
  0.50000000000000000     
  0.50000000000000000     
  0.50000000000000000     
  0.50000000000000000     
  0.50000000000000000     
  0.50000000000000000     
  0.50000000000000000     
  0.50000000000000000     
  0.50000000000000000     
  0.50000000000000000     
  0.50000000000000000     
  0.50000000000000000     
  0.50000000000000000     
  0.50000000000000000     
  0.50000000000000000     
  0.50000000000000000     
  0.50000000000000000     
  0.50000000000000000     
  0.50000000000000000     
  0.50000000000000000     
  0.50000000000000000     
  0.50000000000000000     
  0.50000000000000000     
  0.50000000000000000     
  0.50000000000000000     
  0.50000000000000000     
  0.50000000000000000     
  0.50000000000000000     
  0.50000000000000000     
  0.50000000000000000     
  0.50000000000000000     
  0.50000000000000000     
  0.50000000000000000     
  0.50000000000000000     
  0.50000000000000000     
  0.50000000000000000     
  0.50000000000000000     
  0.50000000000000000     
  0.50000000000000000     
  0.50000000000000000     
  0.50000000000000000     
  0.50000000000000000     
  0.50000000000000000     
  0.50000000000000000     
  0.50000000000000000     
  0.50000000000000000     
  0.50000000000000000     
  0.50000000000000000     
  0.50000000000000000     
  0.50000000000000000     
  0.50000000000000000     
  0.50000000000000000     
  0.50000000000000000     
  0.50000000000000000     
  0.50000000000000000     
  0.50000000000000000     
  0.50000000000000000     
  0.50000000000000000     
  0.50000000000000000     
  0.50000000000000000     
  0.50000000000000000     
  0.50000000000000000     
  0.50000000000000000     
  0.50000000000000000     
  0.50000000000000000     
  0.50000000000000000     
  0.50000000000000000     
  0.50000000000000000     
  0.50000000000000000     
  0.50000000000000000     
  0.50000000000000000     
  0.50000000000000000     
  0.50000000000000000     
  0.50000000000000000     
  0.50000000000000000     
  0.50000000000000000     
  0.50000000000000000     
  0.50000000000000000     
  0.50000000000000000     
  0.50000000000000000     
  0.50000000000000000     
  0.50000000000000000     
  0.50000000000000000     
  0.50000000000000000     
  0.50000000000000000     
  0.50000000000000000     
  0.50000000000000000     
  0.50000000000000000     
  0.50000000000000000     
  0.50000000000000000     
  0.50000000000000000     
  0.50000000000000000     
  0.50000000000000000     
  0.50000000000000000     
  0.50000000000000000     
  0.50000000000000000     
  0.50000000000000000     
  0.50000000000000000     
  0.50000000000000000     
  0.50000000000000000     
  0.50000000000000000     
  0.50000000000000000     
  0.50000000000000000     
  0.50000000000000000     
  0.50000000000000000     
  0.50000000000000000     
  0.50000000000000000     
  0.50000000000000000     
  0.50000000000000000     
  0.50000000000000000     
  0.50000000000000000     
  0.50000000000000000     
  0.50000000000000000     
  0.50000000000000000     
  0.50000000000000000     
  0.50000000000000000     
  0.50000000000000000     
  0.50000000000000000     
  0.50000000000000000     
  0.50000000000000000     
  0.50000000000000000     
  0.50000000000000000     
  0.50000000000000000     
  0.50000000000000000     
  0.50000000000000000     
  0.50000000000000000     
  0.50000000000000000     
  0.50000000000000000     
  0.50000000000000000     
  0.50000000000000000     
  0.50000000000000000     
  0.50000000000000000     
  0.50000000000000000     
  0.50000000000000000     
  0.50000000000000000     
  0.50000000000000000     
  0.50000000000000000     
  0.50000000000000000     
  0.50000000000000000     
  0.50000000000000000     
  0.50000000000000000     
  0.50000000000000000     
  0.50000000000000000     
  0.50000000000000000     
  0.50000000000000000     
  0.50000000000000000     
  0.50000000000000000     
  0.50000000000000000     
  0.50000000000000000     
  0.50000000000000000     
  0.50000000000000000     
  0.50000000000000000     
  0.50000000000000000     
  0.50000000000000000     
  0.50000000000000000     
  0.50000000000000000     
  0.50000000000000000     
  0.50000000000000000     
  0.50000000000000000     
  0.50000000000000000     
  0.50000000000000000     
  0.50000000000000000     
  0.50000000000000000     
  0.50000000000000000     
  0.50000000000000000     
  0.50000000000000000     
  0.50000000000000000     
  0.50000000000000000     
  0.50000000000000000     
  0.50000000000000000     
  0.50000000000000000     
  0.50000000000000000     
  0.50000000000000000     
  0.50000000000000000     
  0.50000000000000000     
  0.50000000000000000     
  0.50000000000000000     
  0.50000000000000000     
  0.50000000000000000     
  0.50000000000000000     
  0.50000000000000000     
  0.50000000000000000     
  0.50000000000000000     
  0.50000000000000000     
  0.50000000000000000     
  0.50000000000000000     
  0.50000000000000000     
  0.50000000000000000     
  0.50000000000000000     
  0.50000000000000000     
  0.50000000000000000     
  0.50000000000000000     
  0.50000000000000000     
  0.50000000000000000     
  0.50000000000000000     
  0.50000000000000000     
  0.50000000000000000     
  0.50000000000000000     
  0.50000000000000000     
  0.50000000000000000     
  0.50000000000000000     
  0.50000000000000000     
  0.50000000000000000     
  0.50000000000000000     
  0.50000000000000000     
  0.50000000000000000     
  0.50000000000000000     
  0.50000000000000000     
  0.50000000000000000     
  0.50000000000000000     
  0.50000000000000000     
  0.50000000000000000     
  0.50000000000000000     
  0.50000000000000000     
  0.50000000000000000     
  0.50000000000000000     
  0.50000000000000000     
  0.50000000000000000     
  0.50000000000000000     
  0.50000000000000000     
  0.50000000000000000     
  0.50000000000000000     
  0.50000000000000000     
  0.50000000000000000     
  0.50000000000000000     
  0.50000000000000000     
  0.50000000000000000     
  0.50000000000000000     
  0.50000000000000000     
  0.50000000000000000     
  0.50000000000000000     
  0.50000000000000000     
  0.50000000000000000     
  0.50000000000000000     
  0.50000000000000000     
  0.50000000000000000     
  0.50000000000000000     
  0.50000000000000000     
  0.50000000000000000     
  0.50000000000000000     
  0.50000000000000000     
  0.50000000000000000     
  0.50000000000000000     
  0.50000000000000000     
  0.50000000000000000     
  0.50000000000000000     
  0.50000000000000000     
  0.50000000000000000     
  0.50000000000000000     
  0.50000000000000000     
  0.50000000000000000     
  0.50000000000000000     
  0.50000000000000000     
  0.50000000000000000     
  0.50000000000000000     
  0.50000000000000000     
  0.50000000000000000     
  0.50000000000000000     
  0.50000000000000000     
  0.50000000000000000     
  0.50000000000000000     
  0.50000000000000000     
  0.50000000000000000     
  0.50000000000000000     
  0.50000000000000000     
