# vtk DataFile Version 5.1
Data.vtk
ASCII
DATASET UNSTRUCTURED_GRID
 
POINTS 500 float
  -3.8535839552702407       -2.8877662353956448        6.1673832859531599     
  -2.6853938608066708        4.3761503602951395       -5.6293542022888508     
  -2.7807012417761015       -1.5805547264347022       -3.5573001519699141     
   4.6784600185073719       0.61161086747509963       -5.7463629857748240     
 -0.79365997008699019       -8.2416818474500353       -1.4330030178121205     
   3.3985653916470628       -6.3779981476522440       0.56077696485000195     
   1.8249715602137684        6.2777555481704264        4.1803522176807482     
  -6.5747415899664805       -1.9678786024462247        4.0908127238217284     
  -1.7098502538162224       -2.9239414890367850       -4.6779838606728736     
   3.0814210171125800        1.2276580844218414       -8.8988989866818091     
   4.2508218429704936       0.29195356975610826       -3.9010923357930665     
   5.7767852171209704        3.0723743085669577       -6.8390785774383591     
  -4.7266823810224610        6.6059012654657172        4.7327233932262756     
  -6.3076731181754617        1.3886962510938405        1.5455457943015558     
   9.1164715737948399       -2.4204858486770688      -0.96458213818619165     
   1.6796906721231193        3.5294073928957799       -1.3086395041724419     
  0.24457701920889602       -4.9361698096613909       -7.0087004362974827     
  -1.3471595443679740      -0.31152250493528461      -0.63872414025903779     
  -3.5055585740444530       -4.3605215585854529        6.6343701790183882     
   3.7924545302059043        4.9029192785344531      -0.80404869520290678     
  -2.7188194974006317       -4.5050878959345919       0.88702410318991842     
   7.2395633507953034        5.6640965587916163       -1.4017650704105526     
   2.8153636486808304       -5.4404221773174770        4.5735450449876804     
   3.4491380516492023       -1.5846320796721081        3.1416874839389974     
   7.1944023171988860       -3.3368598428504375        2.7448263250593259     
  -6.5789961459288060        1.3349360218403061       -6.3734830803674116     
   2.0726214271136389       -2.7252961424590030        7.1360399338781804     
  -4.9645835304274017      -0.19174045611637411       -7.9536473054395138     
   4.2147240808454711       -3.0138538176126657       -7.1402154361935812     
   1.1907314417349537       -6.2959486070682971        2.4694540042889117     
  -1.6906654713293345        3.7675500094279553       -5.3421741986334750     
  -7.4775615101987575E-002  -4.0959673806849066       -3.1307542251650933     
   4.3209366883789722       -4.8204026725232811       -6.9480054055383293     
   3.6688710278833083        4.0615016787387290        4.9534390273324673     
   1.3779515879538831        2.2501442220333931       -3.5813281018884271     
   3.7530180747149831       -1.0754423493810128       -8.5638127824816248     
  -3.6825279594597444        1.1258673999552851       -4.0936135338889548     
  -2.8103309451312377       -6.7676045152818762       0.43688653456004950     
   2.3879266174703515        5.8115300425304941        1.6794503459002699E-002
   1.6143243147207880       -6.3527368617654130       0.17340478633420772     
  -4.7815018083275511       0.58278726721841956        1.5421433315661894     
 -0.41872734375960635        1.5939917803862307        3.2853019558486811     
   1.8052188179988942       -8.7676725604363952       -2.2177173769872338     
   6.0727002601014242        3.7678109667359934        3.7851781360487617     
   4.7677879670948675       -6.1385030549868729       -5.3312434181753785     
   2.2130456066576207       -8.5003335770296804        6.1850276467616282E-002
  -4.1715397655682249       -7.3865127210050581        3.4111475890764549     
   5.2660279945724282       -4.7368996932249283       -3.5816877751469831     
  -2.0336674595373188       -3.3060966098658522       -7.1733253416978524     
  -6.9899543768112800       -4.6765673011340159        3.5631259542483100     
  -3.7500958868782459       -2.5973805279014779        8.0480215201148013     
   4.1422775343815239       -5.5932359527035178       -6.0292050007748035     
   3.9946449704129070       -4.6316527931195433      -0.83775643366141683     
  -4.5261796061541419        3.2945055825159724       -1.0877129684000204     
  -9.1190956759467401      -0.45323404003693935        2.1370209977172405     
   3.7920543140445919        3.2693519681207883       -1.2075485236467276     
   4.9571808425002928      -0.21656675027397185        2.1509616682553001     
  0.40713551879267279       -8.8500911383628882       -2.3319324570017081     
   5.1604045699592964        2.0581007445657007       -6.9560527943034964     
  -6.7396624564596461       -4.1700805162980004        5.0289649672134553     
  -1.5991378425771097       -7.6544979983696448       0.90260306849742644     
  -3.8472965141662829        1.8030287475413684       0.36954091236950232     
  -3.4148311244676708        3.3021833685600614        1.8357621249131049     
   5.2245574263216401       -5.4076023008931600       -4.5064823808125567     
   7.6891194636962785      -0.25438861242672134       -1.6673356706051363     
  -1.4718702309117560        2.6296513422193607E-002  -7.9404136076994751     
   6.7387913871191092       -5.3023129824636515       -1.3532723239563322     
  -3.4114501399773243       -4.4404758490894825        3.8636572907906714     
   5.3424639974828301        5.0607336219993648        3.1729958783435404     
  -2.3709137349764480       -4.0994657971187749       -2.2818220682062678     
  -5.6760241548521337        1.5598701136562436       -4.4022017120049632     
  0.82669961107318246       -7.0511915313080680        6.0877222970738503     
  -7.7556505167196947        8.3078640046089253E-002   5.4197901280533340     
  -4.7112747007606872       -2.3799907650137375        7.2213137189999577     
   6.0577190558989740        4.7120599907630440       -1.1701983056334806     
   2.8882108779912845       -4.7743959425657581      -0.44420876306452373     
 -0.45928629180040470       -1.2084324968466038        8.6799703857843227     
   2.5868540906683770       0.76774581634072225       -6.6276850654281594     
   6.6348211803549777       -2.8591392245545548       0.28799681780594821     
   2.0960403174539728       -4.0440648529508767        3.1839072876456438     
   4.9424518506071307        6.0186287642113490        1.4932757696715795     
   2.5081586067646708       -6.1702971383996656       -4.3120660137709867     
   1.4519155295798938       -6.8729358502000784        3.2486693248590890     
   1.0576738009728897       -4.4014725046310383        5.1413447413845095     
   6.0071154609988442       0.51560414011547118        1.5440193092264252     
   7.2065102266729839E-002  -4.3503414876058919       -1.9391903156104688     
  -5.0724479861999541       -5.9192668691114152        1.5521929090827127     
 -0.43651950651367988       -8.8361148749452862       -2.8837805988082721     
  -2.4006519494358818        1.2043020493474341        8.1219670546155633     
   1.3499835293531546        6.1604006275951235       -1.3661915774800879     
  -2.5409474644099577       0.21815570680107838       -4.9121757998250057     
   1.6019186896773221       0.34613351790048441        9.2204541568478735     
  -2.6215844568513740        7.8417418336143729        3.7879237925159321     
  -2.3177391232193854      -0.78995861799531331       -8.3636934733397670     
   4.4213132207719132       -3.6449327694929394        1.8385316682885493     
   3.5611308660640764       -1.0364672387927596       -7.2210055102597606     
   4.1996397012409394       -8.3962064185554991E-003   4.0551626648037056     
  -7.8156078484154659       -3.0933306085459367        2.5794703488231683     
  -1.5205188869478550       -3.1193019906044963        6.1546641692010411     
   4.3561123370753885       -6.7981832486523093        1.4581134467163250     
   6.0690442699479901       -2.8040308832872585       -6.4472356439406422     
   5.3388887333393455        7.0621453982765061       -1.3742692680104529     
   5.0253907604122006       -2.7954923033495627       -5.7992002318900129     
   4.2780284430085418        6.1041949823269581       -5.6066008903839046     
  -3.0530891347933684       -8.6077237771200057      -0.79341767634627369     
  -4.0764375795912784        2.9769035582408137        7.8952821302492247     
   6.6019793516776621       -3.0985690112476822       -4.6100068613836767     
  -4.2668722712755009       -7.0299898010007720       -2.0211149388371807     
  -5.5344853547002364       -4.4472254466535626        3.0117058901265774     
   9.7228570431386024E-002  -5.2359714783867508       -2.4151796502177798     
  -4.2499508398306993        6.2336066015954383      -0.16453135541545894     
   7.1507927387984447       -1.8424249560529047       -1.5783495840710977     
 -0.84102278824570809       0.49699449556244701       -9.2723601473585582     
   7.9214960436486583       -2.9103733570111090      -0.23818269231927613     
  -1.5524057029056761        3.7807197482130452        2.5237932132666594     
  0.80029227662540547        4.0361901849864505       -7.8554837034758869     
  -2.7175174566770872       -5.5349532310981786       -1.3127827277599717     
   1.8439340186672668       -1.5832071528645566       -6.6499935132875061     
   2.2374361554851223        1.4572163586087903        5.0340581736349677     
  0.95750665241352362       -7.8915229086049363        2.7218481886844010     
   4.6419663570383616       -2.8377963220983626       -4.6811415299883992     
   3.4499053576620988      -0.31333231869721184       -4.5769458815805448     
  -2.8775639060799092       -3.1944894399707593       -6.2215819427300980     
  -9.0244830513030649       0.79244918800229280        2.1665963669790558     
   1.5249454895977892       -5.5430588629885147        3.9366803118646576     
[...]
POINT_DATA  500
SCALARS radius float
LOOKUP_TABLE default
  0.50000000000000000     
  0.50000000000000000     
  0.50000000000000000     
  0.50000000000000000     
  0.50000000000000000     
  0.50000000000000000     
  0.50000000000000000     
  0.50000000000000000     
  0.50000000000000000     
  0.50000000000000000     
  0.50000000000000000     
  0.50000000000000000     
  0.50000000000000000     
  0.50000000000000000     
  0.50000000000000000     
  0.50000000000000000     
  0.50000000000000000     
  0.50000000000000000     
  0.50000000000000000     
  0.50000000000000000     
  0.50000000000000000     
  0.50000000000000000     
  0.50000000000000000     
  0.50000000000000000     
  0.50000000000000000     
  0.50000000000000000     
  0.50000000000000000     
  0.50000000000000000     
  0.50000000000000000     
  0.50000000000000000     
  0.50000000000000000     
  0.50000000000000000     
  0.50000000000000000     
  0.50000000000000000     
  0.50000000000000000     
  0.50000000000000000     
  0.50000000000000000     
  0.50000000000000000     
  0.50000000000000000     
  0.50000000000000000     
  0.50000000000000000     
  0.50000000000000000     
  0.50000000000000000     
  0.50000000000000000     
  0.50000000000000000     
  0.50000000000000000     
  0.50000000000000000     
  0.50000000000000000     
  0.50000000000000000     
  0.50000000000000000     
  0.50000000000000000     
  0.50000000000000000     
  0.50000000000000000     
  0.50000000000000000     
  0.50000000000000000     
  0.50000000000000000     
  0.50000000000000000     
  0.50000000000000000     
  0.50000000000000000     
  0.50000000000000000     
  0.50000000000000000     
  0.50000000000000000     
  0.50000000000000000     
  0.50000000000000000     
  0.50000000000000000     
  0.50000000000000000     
  0.50000000000000000     
  0.50000000000000000     
  0.50000000000000000     
  0.50000000000000000     
  0.50000000000000000     
  0.50000000000000000     
  0.50000000000000000     
  0.50000000000000000     
  0.50000000000000000     
  0.50000000000000000     
  0.50000000000000000     
  0.50000000000000000     
  0.50000000000000000     
  0.50000000000000000     
  0.50000000000000000     
  0.50000000000000000     
  0.50000000000000000     
  0.50000000000000000     
  0.50000000000000000     
  0.50000000000000000     
  0.50000000000000000     
  0.50000000000000000     
  0.50000000000000000     
  0.50000000000000000     
  0.50000000000000000     
  0.50000000000000000     
  0.50000000000000000     
  0.50000000000000000     
  0.50000000000000000     
  0.50000000000000000     
  0.50000000000000000     
  0.50000000000000000     
  0.50000000000000000     
  0.50000000000000000     
  0.50000000000000000     
  0.50000000000000000     
  0.50000000000000000     
  0.50000000000000000     
  0.50000000000000000     
  0.50000000000000000     
  0.50000000000000000     
  0.50000000000000000     
  0.50000000000000000     
  0.50000000000000000     
  0.50000000000000000     
  0.50000000000000000     
  0.50000000000000000     
  0.50000000000000000     
  0.50000000000000000     
  0.50000000000000000     
  0.50000000000000000     
  0.50000000000000000     
  0.50000000000000000     
  0.50000000000000000     
  0.50000000000000000     
  0.50000000000000000     
  0.50000000000000000     
  0.50000000000000000     
  0.50000000000000000     
  0.50000000000000000     
  0.50000000000000000     
  0.50000000000000000     
  0.50000000000000000     
  0.50000000000000000     
  0.50000000000000000     
  0.50000000000000000     
  0.50000000000000000     
  0.50000000000000000     
  0.50000000000000000     
  0.50000000000000000     
  0.50000000000000000     
  0.50000000000000000     
  0.50000000000000000     
  0.50000000000000000     
  0.50000000000000000     
  0.50000000000000000     
  0.50000000000000000     
  0.50000000000000000     
  0.50000000000000000     
  0.50000000000000000     
  0.50000000000000000     
  0.50000000000000000     
  0.50000000000000000     
  0.50000000000000000     
  0.50000000000000000     
  0.50000000000000000     
  0.50000000000000000     
  0.50000000000000000     
  0.50000000000000000     
  0.50000000000000000     
  0.50000000000000000     
  0.50000000000000000     
  0.50000000000000000     
  0.50000000000000000     
  0.50000000000000000     
  0.50000000000000000     
  0.50000000000000000     
  0.50000000000000000     
  0.50000000000000000     
  0.50000000000000000     
  0.50000000000000000     
  0.50000000000000000     
  0.50000000000000000     
  0.50000000000000000     
  0.50000000000000000     
  0.50000000000000000     
  0.50000000000000000     
  0.50000000000000000     
  0.50000000000000000     
  0.50000000000000000     
  0.50000000000000000     
  0.50000000000000000     
  0.50000000000000000     
  0.50000000000000000     
  0.50000000000000000     
  0.50000000000000000     
  0.50000000000000000     
  0.50000000000000000     
  0.50000000000000000     
  0.50000000000000000     
  0.50000000000000000     
  0.50000000000000000     
  0.50000000000000000     
  0.50000000000000000     
  0.50000000000000000     
  0.50000000000000000     
  0.50000000000000000     
  0.50000000000000000     
  0.50000000000000000     
  0.50000000000000000     
  0.50000000000000000     
  0.50000000000000000     
  0.50000000000000000     
  0.50000000000000000     
  0.50000000000000000     
  0.50000000000000000     
  0.50000000000000000     
  0.50000000000000000     
  0.50000000000000000     
  0.50000000000000000     
  0.50000000000000000     
  0.50000000000000000     
  0.50000000000000000     
  0.50000000000000000     
  0.50000000000000000     
  0.50000000000000000     
  0.50000000000000000     
  0.50000000000000000     
  0.50000000000000000     
  0.50000000000000000     
  0.50000000000000000     
  0.50000000000000000     
  0.50000000000000000     
  0.50000000000000000     
  0.50000000000000000     
  0.50000000000000000     
  0.50000000000000000     
  0.50000000000000000     
  0.50000000000000000     
  0.50000000000000000     
  0.50000000000000000     
  0.50000000000000000     
  0.50000000000000000     
  0.50000000000000000     
  0.50000000000000000     
  0.50000000000000000     
  0.50000000000000000     
  0.50000000000000000     
  0.50000000000000000     
  0.50000000000000000     
  0.50000000000000000     
  0.50000000000000000     
  0.50000000000000000     
  0.50000000000000000     
  0.50000000000000000     
  0.50000000000000000     
  0.50000000000000000     
  0.50000000000000000     
  0.50000000000000000     
  0.50000000000000000     
  0.50000000000000000     
  0.50000000000000000     
  0.50000000000000000     
  0.50000000000000000     
  0.50000000000000000     
  0.50000000000000000     
  0.50000000000000000     
  0.50000000000000000     
  0.50000000000000000     
  0.50000000000000000     
  0.50000000000000000     
  0.50000000000000000     
  0.50000000000000000     
  0.50000000000000000     
  0.50000000000000000     
  0.50000000000000000     
  0.50000000000000000     
  0.50000000000000000     
  0.50000000000000000     
  0.50000000000000000     
  0.50000000000000000     
  0.50000000000000000     
  0.50000000000000000     
  0.50000000000000000     
  0.50000000000000000     
  0.50000000000000000     
  0.50000000000000000     
  0.50000000000000000     
  0.50000000000000000     
  0.50000000000000000     
  0.50000000000000000     
  0.50000000000000000     
  0.50000000000000000     
  0.50000000000000000     
  0.50000000000000000     
  0.50000000000000000     
  0.50000000000000000     
  0.50000000000000000     
  0.50000000000000000     
  0.50000000000000000     
  0.50000000000000000     
  0.50000000000000000     
  0.50000000000000000     
  0.50000000000000000     
  0.50000000000000000     
  0.50000000000000000     
  0.50000000000000000     
  0.50000000000000000     
  0.50000000000000000     
  0.50000000000000000     
  0.50000000000000000     
  0.50000000000000000     
  0.50000000000000000     
  0.50000000000000000     
  0.50000000000000000     
  0.50000000000000000     
  0.50000000000000000     
  0.50000000000000000     
  0.50000000000000000     
  0.50000000000000000     
  0.50000000000000000     
  0.50000000000000000     
  0.50000000000000000     
  0.50000000000000000     
  0.50000000000000000     
  0.50000000000000000     
  0.50000000000000000     
  0.50000000000000000     
  0.50000000000000000     
  0.50000000000000000     
  0.50000000000000000     
  0.50000000000000000     
  0.50000000000000000     
  0.50000000000000000     
  0.50000000000000000     
  0.50000000000000000     
  0.50000000000000000     
  0.50000000000000000     
  0.50000000000000000     
  0.50000000000000000     
  0.50000000000000000     
  0.50000000000000000     
  0.50000000000000000     
  0.50000000000000000     
  0.50000000000000000     
  0.50000000000000000     
  0.50000000000000000     
  0.50000000000000000     
  0.50000000000000000     
  0.50000000000000000     
  0.50000000000000000     
  0.50000000000000000     
  0.50000000000000000     
  0.50000000000000000     
  0.50000000000000000     
  0.50000000000000000     
  0.50000000000000000     
  0.50000000000000000     
  0.50000000000000000     
  0.50000000000000000     
  0.50000000000000000     
  0.50000000000000000     
  0.50000000000000000     
  0.50000000000000000     
  0.50000000000000000     
  0.50000000000000000     
  0.50000000000000000     
  0.50000000000000000     
  0.50000000000000000     
  0.50000000000000000     
  0.50000000000000000     
  0.50000000000000000     
  0.50000000000000000     
  0.50000000000000000     
  0.50000000000000000     
  0.50000000000000000     
  0.50000000000000000     
  0.50000000000000000     
  0.50000000000000000     
  0.50000000000000000     
  0.50000000000000000     
  0.50000000000000000     
  0.50000000000000000     
  0.50000000000000000     
  0.50000000000000000     
  0.50000000000000000     
  0.50000000000000000     
  0.50000000000000000     
  0.50000000000000000     
  0.50000000000000000     
  0.50000000000000000     
  0.50000000000000000     
  0.50000000000000000     
  0.50000000000000000     
  0.50000000000000000     
  0.50000000000000000     
  0.50000000000000000     
  0.50000000000000000     
  0.50000000000000000     
  0.50000000000000000     
  0.50000000000000000     
  0.50000000000000000     
  0.50000000000000000     
  0.50000000000000000     
  0.50000000000000000     
  0.50000000000000000     
  0.50000000000000000     
  0.50000000000000000     
  0.50000000000000000     
  0.50000000000000000     
  0.50000000000000000     
  0.50000000000000000     
  0.50000000000000000     
  0.50000000000000000     
  0.50000000000000000     
  0.50000000000000000     
  0.50000000000000000     
  0.50000000000000000     
  0.50000000000000000     
  0.50000000000000000     
  0.50000000000000000     
  0.50000000000000000     
  0.50000000000000000     
  0.50000000000000000     
  0.50000000000000000     
  0.50000000000000000     
  0.50000000000000000     
  0.50000000000000000     
  0.50000000000000000     
  0.50000000000000000     
  0.50000000000000000     
  0.50000000000000000     
  0.50000000000000000     
  0.50000000000000000     
  0.50000000000000000     
  0.50000000000000000     
  0.50000000000000000     
  0.50000000000000000     
  0.50000000000000000     
  0.50000000000000000     
  0.50000000000000000     
  0.50000000000000000     
  0.50000000000000000     
  0.50000000000000000     
  0.50000000000000000     
  0.50000000000000000     
  0.50000000000000000     
  0.50000000000000000     
  0.50000000000000000     
  0.50000000000000000     
  0.50000000000000000     
  0.50000000000000000     
  0.50000000000000000     
  0.50000000000000000     
  0.50000000000000000     
  0.50000000000000000     
  0.50000000000000000     
  0.50000000000000000     
  0.50000000000000000     
  0.50000000000000000     
  0.50000000000000000     
  0.50000000000000000     
  0.50000000000000000     
  0.50000000000000000     
  0.50000000000000000     
  0.50000000000000000     
  0.50000000000000000     
  0.50000000000000000     
  0.50000000000000000     
  0.50000000000000000     
  0.50000000000000000     
  0.50000000000000000     
  0.50000000000000000     
  0.50000000000000000     
  0.50000000000000000     
  0.50000000000000000     
  0.50000000000000000     
  0.50000000000000000     
  0.50000000000000000     
  0.50000000000000000     
  0.50000000000000000     
  0.50000000000000000     
  0.50000000000000000     
  0.50000000000000000     
  0.50000000000000000     
  0.50000000000000000     
  0.50000000000000000     
  0.50000000000000000     
  0.50000000000000000     
  0.50000000000000000     
  0.50000000000000000     
  0.50000000000000000     
  0.50000000000000000     
  0.50000000000000000     
  0.50000000000000000     
  0.50000000000000000     
  0.50000000000000000     
  0.50000000000000000     
  0.50000000000000000     
  0.50000000000000000     
  0.50000000000000000     
  0.50000000000000000     
  0.50000000000000000     
  0.50000000000000000     
  0.50000000000000000     
  0.50000000000000000     
  0.50000000000000000     
  0.50000000000000000     
  0.50000000000000000     
  0.50000000000000000     
  0.50000000000000000     
  0.50000000000000000     
  0.50000000000000000     
  0.50000000000000000     
