# vtk DataFile Version 5.1
Data.vtk
ASCII
DATASET UNSTRUCTURED_GRID
 
POINTS 500 float
  -1.5145159067588629       -7.3405520831934288        2.0937494407955137     
   1.0333556954775225       -8.3321386293037047       -1.6494474114327660     
   2.5525638477330488       -9.1218014139278729      -0.72629048448470335     
 -0.24683216331643101       -7.6119661677610022       -1.9361157240142797     
   2.2852294721008195       -6.2141643134974256       -3.7072643862959294     
   9.2434833395178249       -1.6919693007848153       -1.3935592752440411     
   5.5950194428748627       -5.7185583135581783        2.8422947961122538     
   3.2662308680002905       -6.9208331095998004       0.53884376531357692     
   3.1646448882428406       -5.7386348830013167       -3.6711730564333305     
  -1.8832764392226948       -8.5956477179215884      -0.49685983701948938     
   5.5442616895272465       -4.4850371398966109       -4.7542117585408494     
   7.8126850478156662       -4.8001117691692237       -2.4444804951525541     
   4.1134794826783621       -6.2266205450514116        3.8198401482784647     
   5.2438950282597840       -7.0833565568537180       0.14885026622680111     
  -1.3761329194196792       -8.6293514757803980       0.48694256961646054     
   5.8450474522173863       -4.5718485421191906       -1.8628468829310698     
   4.0781591791876384       -5.2374940967779553       -3.6046100089573372     
   1.5255885525112101       -5.5240039428381262        8.7261334024507309E-002
   1.7511639949245117       -6.9071484640300724        4.7228074325251521     
   4.5437658651695454       -5.8992390879530250       -4.1932457582798959     
   3.2515775189298148       -6.9155717437415198       -1.2188021461070382     
   3.4524886310746772       -8.8418028633721608      -0.39111841849124540     
   6.4628025998817504       -6.1443385919521374        3.2176324930180709     
   4.6781226624427621       -7.3299271334868337        3.8126702482756647     
   7.0025434219927041       -5.1160785912033013      -0.73634131562147243     
   6.2317220652593015       -7.0328488249427616       -1.3183178027487272     
   2.8205737975970830       -7.8357025277414838        1.9695852418818049     
   6.7515525754805736       -6.4004278498103195       -1.8930087980000683     
   2.9045850618831763       -6.8239405797176840       -5.9369425083360543     
   3.9668239838885264       -5.5828524716239603        3.0684483020271096     
   9.2420097832215031      -0.69272775204689929       -1.3315573565586785     
   3.0408330901799872       -6.0115762187779085        4.2364428248997292     
   1.9075466444246940       -7.2509976166107171       -5.8328994111110841     
   5.1773871281360941       -6.7717303166383349        1.2028800382991347     
  -3.1289522502603013       -7.8736490374113250       -1.8838316612512425     
   5.3111018541239803       -7.3252614285632696       -2.8954548985795583     
   5.9517993100978019       -3.2959226105491828       0.64028365130511355     
   6.1440859429035601       -4.0040304126936350        6.0343896749450563     
   8.1545142090989522       -2.5105556946380236        1.2459351943834003     
   3.0981007800019023       -6.2509819004602907        6.3862898567174522     
 -0.40781908331509298       -8.5512905301858222       0.75792031148345818     
   4.6142090091404766       -4.8476264699445215        5.2568522162810787     
  -1.9575341839520934       -7.7101554934549439        4.7843369213586486     
   8.3342411428245509       -1.0152490145338928        4.3696000764768090     
   6.1827027474310263       -4.3672677490424698       -5.7375629383981002     
 -0.53877097164129450       -6.6859003152857817       -3.5224770178225722     
   3.0683226059088038       -8.3724420097772860        3.2768515873183786     
   5.3690875046182054       -4.5069301145275205       -2.7408222098262383     
   5.3027124963035028       -5.8924808782133802       -3.4045364885002112     
  -1.7632857521033463       -9.2614920354182626        1.1611863020307265     
   7.7275866788125533       -1.5223332878443565       -1.8474023387608594     
   3.8135127596645928       -5.9141993836881106       -4.9103822873681446     
   3.7533273230311170       -6.7529957619061554      -0.31969471733640320     
 -0.76827133179104068       -9.3990434546705419        1.1470851312273342     
   1.9022119327040450       -9.0443733282520213        2.1815093594394606     
   7.6819116652560879       -1.9249279445687917       -4.8388663619920012     
  -2.8559265629624493       -8.9238124683032982        1.5243664072477556     
   1.0778671042569055       -8.7556867715378690       -3.5250826407265463     
   6.9309816880378223       -5.0894422931182906       -4.0373663569497333     
   1.0629143534502143       -7.9482759793055306        3.0878260185958388     
   4.9871511413811778       -5.9539281455504067       0.65957086369332851     
   8.3284607388348331       -3.9588388562976840       -2.2830374503011717     
   5.9971585954647626       -6.1081464921461217        4.1021897333170054     
   9.3353976474452534       0.30310758905397484       -1.4182841397405208     
   3.8827153555488421       -6.1218547550434730       -6.1389958985775044     
   4.7590468282972003       -5.7611433292853791       -5.8190161493054120     
   6.2305838394484852       -5.7961826682766464      -0.74385427731240483     
   6.4910305991126158       -1.6371053386969860        5.6359004901111174     
  -2.9268631071701923       -9.0095134410340521      -0.31651072281168446     
 -0.70197078373006727       -8.2583276199303768        2.2844205287689778     
   7.5460230681584806       -2.9073833590491596       -4.9829289054585955     
   3.6195146046898281       -6.8469396224093630        5.5017276547511873     
   7.6498961544139794      -0.92162142828893268        5.1320887609172141     
   5.2524649881931413       -4.8389461882611773        2.4341356081085745     
   4.1915908262519679       -8.4036081497311432        1.4119930581969602     
  -1.5632700246124853       -8.7661566988092705       -1.4291055653348159     
   7.5632872461939868       -3.5869182584252735        4.4439956348650389     
   1.8828388715598485       -7.5181129061006615      -0.32536012037819079     
   7.9717092486938483      -0.94397192619582138      -0.61363687977357939     
   1.8666705910917494       -6.2886266955929218       -1.6912881941124189     
  -2.6068175555938855       -7.9480670575325538      -0.18449660509436253     
  -2.5802817941339189       -8.2825189883038739       -1.1535711650863225     
   4.9197833118813605       -6.4620318512939550        2.8616955233470955     
 -0.44946051340783627       -9.0091388615158667        2.9498729510425270     
   7.0892890579565542       -5.8026668208442134        2.5141932320464671     
  0.20785731838113577       -7.8550825508848074        2.3880271576919649     
   3.6293394492107147       -6.7074676088139995        1.4462693427034139     
   8.8057699995230667      -0.67543986548265722       -3.1060277479386413     
   8.0538410790659896       -4.9682338886344910       0.84021708894763558     
  -2.5928672985143546       -8.3442134605088860       -2.7912150284408654     
   7.0520211029638435       -4.0953977134461006       -2.5829610358752673     
   6.6620788225103480       -1.7087509068065676       -3.5249063506581289     
   6.4933335453086451       -3.9451901110270677       -2.8005181275191141E-002
   3.7938998701629001       -5.8855972567373476       -2.8884017398778172     
 -0.85153920432544039       -8.9096564532062938       -3.1849462212857413     
   3.1173080542246265       -5.6038447830828542       -5.7479985296356615     
   6.3316259869589482       -6.8791932735968260        1.6669024455043326     
  -1.3035001115503602       -7.8306018086313962      -0.11031276370273611     
  -4.9623586577667855E-002  -7.4282397260621851        5.9219947333844969     
  -1.0958673326308481       -8.7026155109327288        3.6486479404179399     
   1.8754902760138568       -6.2505429657321399       -2.7001979239226914     
   8.1853262696009779       -3.5751586509886106       -3.2053051716136616     
   3.1122882318388432       -8.8459183339918539       -1.5211869603397077     
  -1.9063907021161595       -7.5985892277674134      -0.87395279194948994     
   3.7795507563081676       -8.6944210762937093       0.54814928132182084     
  0.15808430119834987       -8.4345108911919677        1.5744954498444583     
  -1.1254599127386606       -8.4411625124198650       -4.2107263491205709     
   1.9219717242576444       -7.4098310963008247       -4.0494908614390654     
   8.9430645844654375       0.46820103864803553        2.7767388465788372     
  0.23534944386653206       -6.2525861102706939      -0.99815525887840884     
   9.3574804132493323       -1.3711568720216907      -0.45341685574718604     
   7.6593453404218188       -3.8374988469969327       0.31313705818992754     
   8.9565377126571395       -2.0683950866426044       -2.3720956158397901     
  0.88219863299471923       -6.4605202419890775       -1.7355058538486621     
   9.4747189448213351      -0.33741260923602806       0.59794680678843826     
   1.4554692507457143       -6.7318152373521336       -3.4811211923738097     
   8.3789518008371182       -1.4349593936828371       -4.2397976339913868     
   4.5166000258286898       -8.1322688488427239       -1.9266233841855471     
  -1.1855941565921566       -9.1475919289619547       -2.2728555469168925     
   3.3963008952274047       -7.8462300425314293       0.18278720841675106     
  -2.1034608280771159       -9.2617858818580157       0.22055327376439332     
 -0.43127690130284529       -7.6284043799589405        1.5069980298640406     
   8.1206971143651536       -4.5105964683305535        1.7821943433311194     
   5.6840872428923763       -7.5728933269646523      -0.67669719369232983     
   9.0236843211265576       -1.8320972319600977        1.4009015984313784     
[...]
POINT_DATA  500
SCALARS radius float
LOOKUP_TABLE default
  0.50000000000000000     
  0.50000000000000000     
  0.50000000000000000     
  0.50000000000000000     
  0.50000000000000000     
  0.50000000000000000     
  0.50000000000000000     
  0.50000000000000000     
  0.50000000000000000     
  0.50000000000000000     
  0.50000000000000000     
  0.50000000000000000     
  0.50000000000000000     
  0.50000000000000000     
  0.50000000000000000     
  0.50000000000000000     
  0.50000000000000000     
  0.50000000000000000     
  0.50000000000000000     
  0.50000000000000000     
  0.50000000000000000     
  0.50000000000000000     
  0.50000000000000000     
  0.50000000000000000     
  0.50000000000000000     
  0.50000000000000000     
  0.50000000000000000     
  0.50000000000000000     
  0.50000000000000000     
  0.50000000000000000     
  0.50000000000000000     
  0.50000000000000000     
  0.50000000000000000     
  0.50000000000000000     
  0.50000000000000000     
  0.50000000000000000     
  0.50000000000000000     
  0.50000000000000000     
  0.50000000000000000     
  0.50000000000000000     
  0.50000000000000000     
  0.50000000000000000     
  0.50000000000000000     
  0.50000000000000000     
  0.50000000000000000     
  0.50000000000000000     
  0.50000000000000000     
  0.50000000000000000     
  0.50000000000000000     
  0.50000000000000000     
  0.50000000000000000     
  0.50000000000000000     
  0.50000000000000000     
  0.50000000000000000     
  0.50000000000000000     
  0.50000000000000000     
  0.50000000000000000     
  0.50000000000000000     
  0.50000000000000000     
  0.50000000000000000     
  0.50000000000000000     
  0.50000000000000000     
  0.50000000000000000     
  0.50000000000000000     
  0.50000000000000000     
  0.50000000000000000     
  0.50000000000000000     
  0.50000000000000000     
  0.50000000000000000     
  0.50000000000000000     
  0.50000000000000000     
  0.50000000000000000     
  0.50000000000000000     
  0.50000000000000000     
  0.50000000000000000     
  0.50000000000000000     
  0.50000000000000000     
  0.50000000000000000     
  0.50000000000000000     
  0.50000000000000000     
  0.50000000000000000     
  0.50000000000000000     
  0.50000000000000000     
  0.50000000000000000     
  0.50000000000000000     
  0.50000000000000000     
  0.50000000000000000     
  0.50000000000000000     
  0.50000000000000000     
  0.50000000000000000     
  0.50000000000000000     
  0.50000000000000000     
  0.50000000000000000     
  0.50000000000000000     
  0.50000000000000000     
  0.50000000000000000     
  0.50000000000000000     
  0.50000000000000000     
  0.50000000000000000     
  0.50000000000000000     
  0.50000000000000000     
  0.50000000000000000     
  0.50000000000000000     
  0.50000000000000000     
  0.50000000000000000     
  0.50000000000000000     
  0.50000000000000000     
  0.50000000000000000     
  0.50000000000000000     
  0.50000000000000000     
  0.50000000000000000     
  0.50000000000000000     
  0.50000000000000000     
  0.50000000000000000     
  0.50000000000000000     
  0.50000000000000000     
  0.50000000000000000     
  0.50000000000000000     
  0.50000000000000000     
  0.50000000000000000     
  0.50000000000000000     
  0.50000000000000000     
  0.50000000000000000     
  0.50000000000000000     
  0.50000000000000000     
  0.50000000000000000     
  0.50000000000000000     
  0.50000000000000000     
  0.50000000000000000     
  0.50000000000000000     
  0.50000000000000000     
  0.50000000000000000     
  0.50000000000000000     
  0.50000000000000000     
  0.50000000000000000     
  0.50000000000000000     
  0.50000000000000000     
  0.50000000000000000     
  0.50000000000000000     
  0.50000000000000000     
  0.50000000000000000     
  0.50000000000000000     
  0.50000000000000000     
  0.50000000000000000     
  0.50000000000000000     
  0.50000000000000000     
  0.50000000000000000     
  0.50000000000000000     
  0.50000000000000000     
  0.50000000000000000     
  0.50000000000000000     
  0.50000000000000000     
  0.50000000000000000     
  0.50000000000000000     
  0.50000000000000000     
  0.50000000000000000     
  0.50000000000000000     
  0.50000000000000000     
  0.50000000000000000     
  0.50000000000000000     
  0.50000000000000000     
  0.50000000000000000     
  0.50000000000000000     
  0.50000000000000000     
  0.50000000000000000     
  0.50000000000000000     
  0.50000000000000000     
  0.50000000000000000     
  0.50000000000000000     
  0.50000000000000000     
  0.50000000000000000     
  0.50000000000000000     
  0.50000000000000000     
  0.50000000000000000     
  0.50000000000000000     
  0.50000000000000000     
  0.50000000000000000     
  0.50000000000000000     
  0.50000000000000000     
  0.50000000000000000     
  0.50000000000000000     
  0.50000000000000000     
  0.50000000000000000     
  0.50000000000000000     
  0.50000000000000000     
  0.50000000000000000     
  0.50000000000000000     
  0.50000000000000000     
  0.50000000000000000     
  0.50000000000000000     
  0.50000000000000000     
  0.50000000000000000     
  0.50000000000000000     
  0.50000000000000000     
  0.50000000000000000     
  0.50000000000000000     
  0.50000000000000000     
  0.50000000000000000     
  0.50000000000000000     
  0.50000000000000000     
  0.50000000000000000     
  0.50000000000000000     
  0.50000000000000000     
  0.50000000000000000     
  0.50000000000000000     
  0.50000000000000000     
  0.50000000000000000     
  0.50000000000000000     
  0.50000000000000000     
  0.50000000000000000     
  0.50000000000000000     
  0.50000000000000000     
  0.50000000000000000     
  0.50000000000000000     
  0.50000000000000000     
  0.50000000000000000     
  0.50000000000000000     
  0.50000000000000000     
  0.50000000000000000     
  0.50000000000000000     
  0.50000000000000000     
  0.50000000000000000     
  0.50000000000000000     
  0.50000000000000000     
  0.50000000000000000     
  0.50000000000000000     
  0.50000000000000000     
  0.50000000000000000     
  0.50000000000000000     
  0.50000000000000000     
  0.50000000000000000     
  0.50000000000000000     
  0.50000000000000000     
  0.50000000000000000     
  0.50000000000000000     
  0.50000000000000000     
  0.50000000000000000     
  0.50000000000000000     
  0.50000000000000000     
  0.50000000000000000     
  0.50000000000000000     
  0.50000000000000000     
  0.50000000000000000     
  0.50000000000000000     
  0.50000000000000000     
  0.50000000000000000     
  0.50000000000000000     
  0.50000000000000000     
  0.50000000000000000     
  0.50000000000000000     
  0.50000000000000000     
  0.50000000000000000     
  0.50000000000000000     
  0.50000000000000000     
  0.50000000000000000     
  0.50000000000000000     
  0.50000000000000000     
  0.50000000000000000     
  0.50000000000000000     
  0.50000000000000000     
  0.50000000000000000     
  0.50000000000000000     
  0.50000000000000000     
  0.50000000000000000     
  0.50000000000000000     
  0.50000000000000000     
  0.50000000000000000     
  0.50000000000000000     
  0.50000000000000000     
  0.50000000000000000     
  0.50000000000000000     
  0.50000000000000000     
  0.50000000000000000     
  0.50000000000000000     
  0.50000000000000000     
  0.50000000000000000     
  0.50000000000000000     
  0.50000000000000000     
  0.50000000000000000     
  0.50000000000000000     
  0.50000000000000000     
  0.50000000000000000     
  0.50000000000000000     
  0.50000000000000000     
  0.50000000000000000     
  0.50000000000000000     
  0.50000000000000000     
  0.50000000000000000     
  0.50000000000000000     
  0.50000000000000000     
  0.50000000000000000     
  0.50000000000000000     
  0.50000000000000000     
  0.50000000000000000     
  0.50000000000000000     
  0.50000000000000000     
  0.50000000000000000     
  0.50000000000000000     
  0.50000000000000000     
  0.50000000000000000     
  0.50000000000000000     
  0.50000000000000000     
  0.50000000000000000     
  0.50000000000000000     
  0.50000000000000000     
  0.50000000000000000     
  0.50000000000000000     
  0.50000000000000000     
  0.50000000000000000     
  0.50000000000000000     
  0.50000000000000000     
  0.50000000000000000     
  0.50000000000000000     
  0.50000000000000000     
  0.50000000000000000     
  0.50000000000000000     
  0.50000000000000000     
  0.50000000000000000     
  0.50000000000000000     
  0.50000000000000000     
  0.50000000000000000     
  0.50000000000000000     
  0.50000000000000000     
  0.50000000000000000     
  0.50000000000000000     
  0.50000000000000000     
  0.50000000000000000     
  0.50000000000000000     
  0.50000000000000000     
  0.50000000000000000     
  0.50000000000000000     
  0.50000000000000000     
  0.50000000000000000     
  0.50000000000000000     
  0.50000000000000000     
  0.50000000000000000     
  0.50000000000000000     
  0.50000000000000000     
  0.50000000000000000     
  0.50000000000000000     
  0.50000000000000000     
  0.50000000000000000     
  0.50000000000000000     
  0.50000000000000000     
  0.50000000000000000     
  0.50000000000000000     
  0.50000000000000000     
  0.50000000000000000     
  0.50000000000000000     
  0.50000000000000000     
  0.50000000000000000     
  0.50000000000000000     
  0.50000000000000000     
  0.50000000000000000     
  0.50000000000000000     
  0.50000000000000000     
  0.50000000000000000     
  0.50000000000000000     
  0.50000000000000000     
  0.50000000000000000     
  0.50000000000000000     
  0.50000000000000000     
  0.50000000000000000     
  0.50000000000000000     
  0.50000000000000000     
  0.50000000000000000     
  0.50000000000000000     
  0.50000000000000000     
  0.50000000000000000     
  0.50000000000000000     
  0.50000000000000000     
  0.50000000000000000     
  0.50000000000000000     
  0.50000000000000000     
  0.50000000000000000     
  0.50000000000000000     
  0.50000000000000000     
  0.50000000000000000     
  0.50000000000000000     
  0.50000000000000000     
  0.50000000000000000     
  0.50000000000000000     
  0.50000000000000000     
  0.50000000000000000     
  0.50000000000000000     
  0.50000000000000000     
  0.50000000000000000     
  0.50000000000000000     
  0.50000000000000000     
  0.50000000000000000     
  0.50000000000000000     
  0.50000000000000000     
  0.50000000000000000     
  0.50000000000000000     
  0.50000000000000000     
  0.50000000000000000     
  0.50000000000000000     
  0.50000000000000000     
  0.50000000000000000     
  0.50000000000000000     
  0.50000000000000000     
  0.50000000000000000     
  0.50000000000000000     
  0.50000000000000000     
  0.50000000000000000     
  0.50000000000000000     
  0.50000000000000000     
  0.50000000000000000     
  0.50000000000000000     
  0.50000000000000000     
  0.50000000000000000     
  0.50000000000000000     
  0.50000000000000000     
  0.50000000000000000     
  0.50000000000000000     
  0.50000000000000000     
  0.50000000000000000     
  0.50000000000000000     
  0.50000000000000000     
  0.50000000000000000     
  0.50000000000000000     
  0.50000000000000000     
  0.50000000000000000     
  0.50000000000000000     
  0.50000000000000000     
  0.50000000000000000     
  0.50000000000000000     
  0.50000000000000000     
  0.50000000000000000     
  0.50000000000000000     
  0.50000000000000000     
  0.50000000000000000     
  0.50000000000000000     
  0.50000000000000000     
  0.50000000000000000     
  0.50000000000000000     
  0.50000000000000000     
  0.50000000000000000     
  0.50000000000000000     
  0.50000000000000000     
  0.50000000000000000     
  0.50000000000000000     
  0.50000000000000000     
  0.50000000000000000     
  0.50000000000000000     
  0.50000000000000000     
  0.50000000000000000     
  0.50000000000000000     
  0.50000000000000000     
  0.50000000000000000     
  0.50000000000000000     
  0.50000000000000000     
  0.50000000000000000     
  0.50000000000000000     
  0.50000000000000000     
  0.50000000000000000     
  0.50000000000000000     
  0.50000000000000000     
  0.50000000000000000     
  0.50000000000000000     
  0.50000000000000000     
  0.50000000000000000     
  0.50000000000000000     
  0.50000000000000000     
  0.50000000000000000     
  0.50000000000000000     
  0.50000000000000000     
  0.50000000000000000     
  0.50000000000000000     
  0.50000000000000000     
  0.50000000000000000     
  0.50000000000000000     
  0.50000000000000000     
  0.50000000000000000     
  0.50000000000000000     
  0.50000000000000000     
  0.50000000000000000     
  0.50000000000000000     
  0.50000000000000000     
  0.50000000000000000     
  0.50000000000000000     
  0.50000000000000000     
  0.50000000000000000     
  0.50000000000000000     
  0.50000000000000000     
  0.50000000000000000     
  0.50000000000000000     
  0.50000000000000000     
  0.50000000000000000     
  0.50000000000000000     
  0.50000000000000000     
  0.50000000000000000     
  0.50000000000000000     
  0.50000000000000000     
  0.50000000000000000     
  0.50000000000000000     
  0.50000000000000000     
  0.50000000000000000     
  0.50000000000000000     
  0.50000000000000000     
