# vtk DataFile Version 5.1
Data.vtk
ASCII
DATASET UNSTRUCTURED_GRID
 
POINTS 500 float
   2.8152296550985780       -5.2310707961573719        7.2997951790079574     
   2.3641451272233009       -6.4221455441516877       -3.5057473185733756     
   7.9697857949310160       -4.7012844594525802       -2.1357368176916518     
   6.8340790757505783       -4.9247598113311497       -1.6328216763726464     
   5.9413032086425064       -7.3187133006095362       -1.1763477151867647     
 -0.83478419411544269       -7.4208568966996129       -2.1712892034490805     
   6.5109083117771016       -3.3707822081938503        5.9225719886441643     
 -0.18707111682640545       -7.9019932762842400       0.98840773053870701     
   9.3231451533374550      -0.94034235165960101       -1.3913052460579500     
   6.7979312675162502       -1.1565228039551567       -6.5067833375828359     
  -1.3060626461456259       -7.9939377276927406       -2.8489667403406269     
  -2.8620181572112411E-002  -6.5934794022950101      -0.67912743244193996     
   5.0445810278054672       -6.5316569380966305        3.0357025333163632     
   7.8057135630979229       0.53017863975372970       -3.2642254041885543     
   7.1745786449465552       -3.2426454218420933        3.4774693017131035     
  -1.9081780628436205       -7.0445610841704331        1.5814704938211450     
   8.6983740913426804       -1.3967552629632092       -3.2959461694878782     
 -0.47932943525528343       -9.4771646633117328        9.2542385450225847E-002
   7.7816890246777710       -2.0451321260632764        4.1208230601977940     
   4.3799374983181325       -6.1710442537516164       -4.1006110565948877     
  -1.1577760949266840       -7.0572845751707618      -0.45331128915900443     
   2.3787171738171646       -5.0890945953547737       -1.7028172720344426     
  0.66837455222644271       -7.8806381185586210        3.8011478366813995     
   6.5107727857361333       -6.3078732725930990        2.8407756116836604     
   1.8477729539889269       -8.2991794844722087       -1.4142135672750422     
   8.8617255449990218       -3.2374882399766189       -1.1127017829562087     
  -3.0536288003974055E-002  -8.1099481891838217        3.1227708527946483     
   7.0529472393896491       -6.3152432718469580       0.64045038108207886     
   3.7103132776738352       -6.0046828183589218       -4.8515493407259846     
  -2.2053550025296693       -7.3254387652480597        2.5400739144641324     
  -1.7066004273874653       -7.9449845983582490       0.39267731234719994     
   2.1554996781804956       -5.2865222117625308        6.3139931680372836     
   1.6807588955311159       -7.7548260018453341       -4.8321773300399773     
   9.0333150747583630       -2.3763701944347533       -1.6853474231313312     
   6.8234805072267788       -2.5383995812676141       -4.2412347033108428     
   3.2597230021862802       -5.9731589847059539       -3.5303489043397414     
   4.5089755453104523       -6.3430951667313362      -0.93973657363717911     
  0.63604647803027980       -8.1693743497346496        4.8049764204911094     
   2.4591049174263335       -8.0646148607988710        1.3504530526657959     
   7.8212434020756563       -1.6148274074484164        3.1689558574639003     
  0.76106963127567595       -8.8583718812905623        1.0032206056478863     
   2.5678879543541346       -6.8817016736484069        2.5696714544814152     
   9.3114120700154359       -1.2987950646772755       0.91583176677626965     
   8.1652372509182172       -2.9322633562875615        3.8628746311285540     
   6.6681016459516114       -4.5297105949155023       -4.9717748380577280     
   4.3918959528923658       -4.9748704148329033       -1.0129471487395068     
   4.5364945064291096       -7.0212962772345175        4.4815127402583474     
   1.9812925944950983       -6.4248338659597950      -0.27842262642082022     
   3.0640802733888091       -7.1381126279414904       -3.4628249570155307     
   7.9602459598796207       -3.0129439797126443       -4.2195948522064555     
   5.4208413984802313       -6.4294911285792145       -1.5561944232339957     
   4.4719832124179444       -5.3581508264854874       -4.9511637258513579     
 -0.75901697731352247       -7.7738338921434291       0.12055956393028186     
   7.7767094404615325      -0.33838661996711838       -2.5698416820578158     
   3.7806713354580195       -8.5523326401558002        1.6627252481589589     
   7.4065068628471353       -5.5241021417856935       -2.2093695216495974     
 -0.64465741836335555       -9.1512350217752783        2.4676737499883723     
 -0.16952777018800264       -5.9266465655914962       -1.4191264844594194     
   5.8343999529282904       -4.4967817017715630       -4.2739267231099580     
   2.9509192491233569       -7.2617956684081211        3.8198558122986368     
   4.0351660751491556       -8.5728315751696993       0.68892812013635163     
 -0.21069748863554297       -6.5956686380544562       -2.2774753518078472     
   5.3889541133089800       -6.6565770203639421        4.0689196068935578     
   4.5700295841577674       -7.1186475972568966       -1.5679378508864017     
   7.7678941028091621       -1.3206721451393535       -5.2551492933823125     
   6.4734988051498252       -2.8419801608520028       -5.8895875028721596     
  0.13864775104366800       -8.4382655396738073       -1.7910420472656721     
  -3.4615770257239613       -8.8340400461482780       0.47943167520595503     
   7.8635590290102275       -5.3200003343933737      -0.33524277270588099     
   6.7769059746765388       -4.1495258432666287        3.2696811839951816     
   7.2973749883476478       -2.1418145837232836       -5.6776044277530033     
   7.6584365743921605       -3.7237403098658506        4.2101475431095166     
 -0.89652653162567497       -8.5567740953593550       0.72730336612074253     
   3.7551323891230872       -7.6861993838231593        1.1633266912625895     
  0.37561653062437250       -6.6153778201631148        2.2722124884208013     
  0.23300624333765316       -6.0798833577419265       0.20555461069864167     
   5.3088483234644830       -4.5975002509348490        5.9441771835439390     
   6.6515404406854852       -5.4609110270912371       0.29266510703869603     
   1.6876898295349880       -5.4560868933632509       0.35867451833626512     
   2.3175641790698824       -6.8217823192936526       -2.5901985087835206     
   2.0418519621335047       -7.1835060059697664       -1.6997434105289488     
   6.6748025682220540       -6.6964332623324658      -0.88919425529451113     
 -0.34004797356324801       -8.5910787257692345        1.6973599378309279     
   6.7343893565445629       -6.4519716563971405        1.8073284990453191     
  0.97271751224804126       -6.4065809012221493        4.2293283133949249     
   5.4391659224736708       -5.4094486226142218        3.8552435795691120     
  0.52164847884358656       -7.5837913995717461        2.4764916611809507     
   1.2436803201856079       -6.1439454056339633        1.7200133238706201     
   2.8334425162767825       -6.3684167584603930        3.3857059085353702     
   6.7622559598867058       -6.0827701353823018       -2.7358524744844903     
   1.2567206351743843       -7.9104403324813353       -3.0595607043227000     
   8.0153557368767565       -1.3200261522753831       -4.1497521990710204     
   6.3844085580093477       -6.9598044057134398        1.0182396207886646     
   4.9230384706658654       -6.6711936329896790       -2.3906566082544702     
   4.1355034241546571       -4.0632138377616167       -3.5028308026571513     
   3.4890184577550252       -6.1278876281773700       -6.3649698802537369     
   5.4510944484486723       -6.5768130464984518        1.1971506100743106     
   8.4119537655549141       -3.3073182092958269        2.9191890558253291     
   5.8376312371783934       -2.8973307715984160        6.6107754857184071     
   3.7305193694765975       -5.0609053856233910        3.8881546447680360     
  -1.8778291449815530       -9.0206786943142028       -2.3173368945901793     
   2.5616538460070486       -8.3310284571184692       -3.7791403134396635     
 -0.37105204808369158       -8.2780879517237054       -2.6367712758775399     
   8.9206570324694869      -0.64136290109763872       -2.6784534055710392     
   7.5539433321970986       -4.9385043640609005        2.9209035457478443     
   6.0433638022980256       -4.6086292000230884        3.9084076616390897     
   1.4489417522444983       -6.9008242378311415       -3.4966146330671446     
 -0.66209631382199052       -9.3915023034569085       -1.2692169455327587     
 -0.80853523803873650       -7.0731292045335445        3.2461698492491973     
   7.5327600539883415       -3.4579180420218059       -1.1977293694090991     
   1.0543268650663324       -7.3188243713947161       -1.5938295106167846     
  -1.6936015621993967       -9.2469331994387751       -1.3609653911370578     
   8.3258572178483163       -3.0227549120610453       -3.2169182848562135     
   2.6504110798615192       -7.1376968839061270      -0.88919038950680951     
   2.8995721368821656       -6.1984004344019636      -0.60298381271084245     
 -0.57370012056220476       -8.4115745064818057       -1.0896802147502938     
   7.7996403583341687       -3.7825741207956298       -3.5994538111056777     
   4.0922572791098970       -5.3653133091767504       -3.5814013141355012     
   1.0498083159032803       -8.1713661375850268       -2.1166250291622846     
   2.3799040609359658       -8.6189170295774034        3.1974943568040155     
   4.7609159318944148       -4.4274955983683641       -5.1780041784596307     
   4.8214829436694924       -8.1843506480545383      -0.13571932193050262     
  -1.0685460083050706       -7.9239140604906915        1.4822327277959231     
   4.8867545535618895       -6.3358207226602161        5.1212159089409921     
   8.5971976256266398       -1.0644704811611894       0.16627150163944501     
[...]
POINT_DATA  500
SCALARS radius float
LOOKUP_TABLE default
  0.50000000000000000     
  0.50000000000000000     
  0.50000000000000000     
  0.50000000000000000     
  0.50000000000000000     
  0.50000000000000000     
  0.50000000000000000     
  0.50000000000000000     
  0.50000000000000000     
  0.50000000000000000     
  0.50000000000000000     
  0.50000000000000000     
  0.50000000000000000     
  0.50000000000000000     
  0.50000000000000000     
  0.50000000000000000     
  0.50000000000000000     
  0.50000000000000000     
  0.50000000000000000     
  0.50000000000000000     
  0.50000000000000000     
  0.50000000000000000     
  0.50000000000000000     
  0.50000000000000000     
  0.50000000000000000     
  0.50000000000000000     
  0.50000000000000000     
  0.50000000000000000     
  0.50000000000000000     
  0.50000000000000000     
  0.50000000000000000     
  0.50000000000000000     
  0.50000000000000000     
  0.50000000000000000     
  0.50000000000000000     
  0.50000000000000000     
  0.50000000000000000     
  0.50000000000000000     
  0.50000000000000000     
  0.50000000000000000     
  0.50000000000000000     
  0.50000000000000000     
  0.50000000000000000     
  0.50000000000000000     
  0.50000000000000000     
  0.50000000000000000     
  0.50000000000000000     
  0.50000000000000000     
  0.50000000000000000     
  0.50000000000000000     
  0.50000000000000000     
  0.50000000000000000     
  0.50000000000000000     
  0.50000000000000000     
  0.50000000000000000     
  0.50000000000000000     
  0.50000000000000000     
  0.50000000000000000     
  0.50000000000000000     
  0.50000000000000000     
  0.50000000000000000     
  0.50000000000000000     
  0.50000000000000000     
  0.50000000000000000     
  0.50000000000000000     
  0.50000000000000000     
  0.50000000000000000     
  0.50000000000000000     
  0.50000000000000000     
  0.50000000000000000     
  0.50000000000000000     
  0.50000000000000000     
  0.50000000000000000     
  0.50000000000000000     
  0.50000000000000000     
  0.50000000000000000     
  0.50000000000000000     
  0.50000000000000000     
  0.50000000000000000     
  0.50000000000000000     
  0.50000000000000000     
  0.50000000000000000     
  0.50000000000000000     
  0.50000000000000000     
  0.50000000000000000     
  0.50000000000000000     
  0.50000000000000000     
  0.50000000000000000     
  0.50000000000000000     
  0.50000000000000000     
  0.50000000000000000     
  0.50000000000000000     
  0.50000000000000000     
  0.50000000000000000     
  0.50000000000000000     
  0.50000000000000000     
  0.50000000000000000     
  0.50000000000000000     
  0.50000000000000000     
  0.50000000000000000     
  0.50000000000000000     
  0.50000000000000000     
  0.50000000000000000     
  0.50000000000000000     
  0.50000000000000000     
  0.50000000000000000     
  0.50000000000000000     
  0.50000000000000000     
  0.50000000000000000     
  0.50000000000000000     
  0.50000000000000000     
  0.50000000000000000     
  0.50000000000000000     
  0.50000000000000000     
  0.50000000000000000     
  0.50000000000000000     
  0.50000000000000000     
  0.50000000000000000     
  0.50000000000000000     
  0.50000000000000000     
  0.50000000000000000     
  0.50000000000000000     
  0.50000000000000000     
  0.50000000000000000     
  0.50000000000000000     
  0.50000000000000000     
  0.50000000000000000     
  0.50000000000000000     
  0.50000000000000000     
  0.50000000000000000     
  0.50000000000000000     
  0.50000000000000000     
  0.50000000000000000     
  0.50000000000000000     
  0.50000000000000000     
  0.50000000000000000     
  0.50000000000000000     
  0.50000000000000000     
  0.50000000000000000     
  0.50000000000000000     
  0.50000000000000000     
  0.50000000000000000     
  0.50000000000000000     
  0.50000000000000000     
  0.50000000000000000     
  0.50000000000000000     
  0.50000000000000000     
  0.50000000000000000     
  0.50000000000000000     
  0.50000000000000000     
  0.50000000000000000     
  0.50000000000000000     
  0.50000000000000000     
  0.50000000000000000     
  0.50000000000000000     
  0.50000000000000000     
  0.50000000000000000     
  0.50000000000000000     
  0.50000000000000000     
  0.50000000000000000     
  0.50000000000000000     
  0.50000000000000000     
  0.50000000000000000     
  0.50000000000000000     
  0.50000000000000000     
  0.50000000000000000     
  0.50000000000000000     
  0.50000000000000000     
  0.50000000000000000     
  0.50000000000000000     
  0.50000000000000000     
  0.50000000000000000     
  0.50000000000000000     
  0.50000000000000000     
  0.50000000000000000     
  0.50000000000000000     
  0.50000000000000000     
  0.50000000000000000     
  0.50000000000000000     
  0.50000000000000000     
  0.50000000000000000     
  0.50000000000000000     
  0.50000000000000000     
  0.50000000000000000     
  0.50000000000000000     
  0.50000000000000000     
  0.50000000000000000     
  0.50000000000000000     
  0.50000000000000000     
  0.50000000000000000     
  0.50000000000000000     
  0.50000000000000000     
  0.50000000000000000     
  0.50000000000000000     
  0.50000000000000000     
  0.50000000000000000     
  0.50000000000000000     
  0.50000000000000000     
  0.50000000000000000     
  0.50000000000000000     
  0.50000000000000000     
  0.50000000000000000     
  0.50000000000000000     
  0.50000000000000000     
  0.50000000000000000     
  0.50000000000000000     
  0.50000000000000000     
  0.50000000000000000     
  0.50000000000000000     
  0.50000000000000000     
  0.50000000000000000     
  0.50000000000000000     
  0.50000000000000000     
  0.50000000000000000     
  0.50000000000000000     
  0.50000000000000000     
  0.50000000000000000     
  0.50000000000000000     
  0.50000000000000000     
  0.50000000000000000     
  0.50000000000000000     
  0.50000000000000000     
  0.50000000000000000     
  0.50000000000000000     
  0.50000000000000000     
  0.50000000000000000     
  0.50000000000000000     
  0.50000000000000000     
  0.50000000000000000     
  0.50000000000000000     
  0.50000000000000000     
  0.50000000000000000     
  0.50000000000000000     
  0.50000000000000000     
  0.50000000000000000     
  0.50000000000000000     
  0.50000000000000000     
  0.50000000000000000     
  0.50000000000000000     
  0.50000000000000000     
  0.50000000000000000     
  0.50000000000000000     
  0.50000000000000000     
  0.50000000000000000     
  0.50000000000000000     
  0.50000000000000000     
  0.50000000000000000     
  0.50000000000000000     
  0.50000000000000000     
  0.50000000000000000     
  0.50000000000000000     
  0.50000000000000000     
  0.50000000000000000     
  0.50000000000000000     
  0.50000000000000000     
  0.50000000000000000     
  0.50000000000000000     
  0.50000000000000000     
  0.50000000000000000     
  0.50000000000000000     
  0.50000000000000000     
  0.50000000000000000     
  0.50000000000000000     
  0.50000000000000000     
  0.50000000000000000     
  0.50000000000000000     
  0.50000000000000000     
  0.50000000000000000     
  0.50000000000000000     
  0.50000000000000000     
  0.50000000000000000     
  0.50000000000000000     
  0.50000000000000000     
  0.50000000000000000     
  0.50000000000000000     
  0.50000000000000000     
  0.50000000000000000     
  0.50000000000000000     
  0.50000000000000000     
  0.50000000000000000     
  0.50000000000000000     
  0.50000000000000000     
  0.50000000000000000     
  0.50000000000000000     
  0.50000000000000000     
  0.50000000000000000     
  0.50000000000000000     
  0.50000000000000000     
  0.50000000000000000     
  0.50000000000000000     
  0.50000000000000000     
  0.50000000000000000     
  0.50000000000000000     
  0.50000000000000000     
  0.50000000000000000     
  0.50000000000000000     
  0.50000000000000000     
  0.50000000000000000     
  0.50000000000000000     
  0.50000000000000000     
  0.50000000000000000     
  0.50000000000000000     
  0.50000000000000000     
  0.50000000000000000     
  0.50000000000000000     
  0.50000000000000000     
  0.50000000000000000     
  0.50000000000000000     
  0.50000000000000000     
  0.50000000000000000     
  0.50000000000000000     
  0.50000000000000000     
  0.50000000000000000     
  0.50000000000000000     
  0.50000000000000000     
  0.50000000000000000     
  0.50000000000000000     
  0.50000000000000000     
  0.50000000000000000     
  0.50000000000000000     
  0.50000000000000000     
  0.50000000000000000     
  0.50000000000000000     
  0.50000000000000000     
  0.50000000000000000     
  0.50000000000000000     
  0.50000000000000000     
  0.50000000000000000     
  0.50000000000000000     
  0.50000000000000000     
  0.50000000000000000     
  0.50000000000000000     
  0.50000000000000000     
  0.50000000000000000     
  0.50000000000000000     
  0.50000000000000000     
  0.50000000000000000     
  0.50000000000000000     
  0.50000000000000000     
  0.50000000000000000     
  0.50000000000000000     
  0.50000000000000000     
  0.50000000000000000     
  0.50000000000000000     
  0.50000000000000000     
  0.50000000000000000     
  0.50000000000000000     
  0.50000000000000000     
  0.50000000000000000     
  0.50000000000000000     
  0.50000000000000000     
  0.50000000000000000     
  0.50000000000000000     
  0.50000000000000000     
  0.50000000000000000     
  0.50000000000000000     
  0.50000000000000000     
  0.50000000000000000     
  0.50000000000000000     
  0.50000000000000000     
  0.50000000000000000     
  0.50000000000000000     
  0.50000000000000000     
  0.50000000000000000     
  0.50000000000000000     
  0.50000000000000000     
  0.50000000000000000     
  0.50000000000000000     
  0.50000000000000000     
  0.50000000000000000     
  0.50000000000000000     
  0.50000000000000000     
  0.50000000000000000     
  0.50000000000000000     
  0.50000000000000000     
  0.50000000000000000     
  0.50000000000000000     
  0.50000000000000000     
  0.50000000000000000     
  0.50000000000000000     
  0.50000000000000000     
  0.50000000000000000     
  0.50000000000000000     
  0.50000000000000000     
  0.50000000000000000     
  0.50000000000000000     
  0.50000000000000000     
  0.50000000000000000     
  0.50000000000000000     
  0.50000000000000000     
  0.50000000000000000     
  0.50000000000000000     
  0.50000000000000000     
  0.50000000000000000     
  0.50000000000000000     
  0.50000000000000000     
  0.50000000000000000     
  0.50000000000000000     
  0.50000000000000000     
  0.50000000000000000     
  0.50000000000000000     
  0.50000000000000000     
  0.50000000000000000     
  0.50000000000000000     
  0.50000000000000000     
  0.50000000000000000     
  0.50000000000000000     
  0.50000000000000000     
  0.50000000000000000     
  0.50000000000000000     
  0.50000000000000000     
  0.50000000000000000     
  0.50000000000000000     
  0.50000000000000000     
  0.50000000000000000     
  0.50000000000000000     
  0.50000000000000000     
  0.50000000000000000     
  0.50000000000000000     
  0.50000000000000000     
  0.50000000000000000     
  0.50000000000000000     
  0.50000000000000000     
  0.50000000000000000     
  0.50000000000000000     
  0.50000000000000000     
  0.50000000000000000     
  0.50000000000000000     
  0.50000000000000000     
  0.50000000000000000     
  0.50000000000000000     
  0.50000000000000000     
  0.50000000000000000     
  0.50000000000000000     
  0.50000000000000000     
  0.50000000000000000     
  0.50000000000000000     
  0.50000000000000000     
  0.50000000000000000     
  0.50000000000000000     
  0.50000000000000000     
  0.50000000000000000     
  0.50000000000000000     
  0.50000000000000000     
  0.50000000000000000     
  0.50000000000000000     
  0.50000000000000000     
  0.50000000000000000     
  0.50000000000000000     
  0.50000000000000000     
  0.50000000000000000     
  0.50000000000000000     
  0.50000000000000000     
  0.50000000000000000     
  0.50000000000000000     
  0.50000000000000000     
  0.50000000000000000     
  0.50000000000000000     
  0.50000000000000000     
  0.50000000000000000     
  0.50000000000000000     
  0.50000000000000000     
  0.50000000000000000     
  0.50000000000000000     
  0.50000000000000000     
  0.50000000000000000     
  0.50000000000000000     
  0.50000000000000000     
  0.50000000000000000     
  0.50000000000000000     
  0.50000000000000000     
  0.50000000000000000     
  0.50000000000000000     
  0.50000000000000000     
  0.50000000000000000     
  0.50000000000000000     
  0.50000000000000000     
  0.50000000000000000     
  0.50000000000000000     
  0.50000000000000000     
  0.50000000000000000     
  0.50000000000000000     
  0.50000000000000000     
  0.50000000000000000     
  0.50000000000000000     
  0.50000000000000000     
  0.50000000000000000     
  0.50000000000000000     
  0.50000000000000000     
  0.50000000000000000     
  0.50000000000000000     
  0.50000000000000000     
  0.50000000000000000     
  0.50000000000000000     
  0.50000000000000000     
  0.50000000000000000     
  0.50000000000000000     
  0.50000000000000000     
  0.50000000000000000     
  0.50000000000000000     
