# vtk DataFile Version 5.1
Data.vtk
ASCII
DATASET UNSTRUCTURED_GRID
 
POINTS 500 float
  -2.4925551461901665       -8.9061215803514191        2.1692043494538273     
   9.1325766059971425       -1.9111175775629583       -1.0783318597032190     
   8.0879835364193493       0.68894790667582306       0.59052653381099030     
   2.5600351084112098       -6.8944359318006860       -2.3620128220587890     
  -2.4256850376937789       -7.1951012549286304       -1.9108761994173755     
  0.48493922561205360       -6.4210567476299012       -2.0298803975125232     
   1.0192193063145387       -8.0370665501919074        2.6945845879424528     
   4.3596922867030727       -6.1280293340187528        1.1971688333698951     
   6.8501871638180338       -5.0064608504884820       -1.3182591843039042     
   6.3994714178191741       -6.2894967554368550       -3.1097671378187455     
 -0.21229164152955357       -6.8222587849123135       -3.5237634625259178     
   8.0318171328859407       -3.1175574298656583       -3.4505789830199523     
   4.6845900463711647       -6.6674722777682014        2.5669960661943474     
  0.61563555752812771       -7.3798985730588047        1.0698051752308186     
   1.9174585910757656       -6.7626524824835350       -3.2565769691259727     
  -2.0688970672583413       -7.5445203089379840      -0.97965527815959264     
  -1.5844731735585895       -7.7606332958769482       -4.4131066710688076     
 -0.88817875070265673       -7.9371570670127500        1.9926589352430313     
   6.2361853916974601       -5.3804862938051450        2.6307413670942821     
 -0.28263814587098746       -8.3086464788138716       -2.9466302518792289     
   5.3667677631234847       -5.6806641115180510      -0.58442530836381124     
   3.2614247434398651       -8.4919023021816091       -2.7250022092849413     
   4.9293224185157554       -7.9354193306979859        1.7268191611113979     
   6.2542189979351850       -4.7546178142302225        3.4269905905074394     
   2.0918529722743499E-002  -8.4782038194594751      -0.96306256280948266     
   7.1094621354063543       -5.7640260649993129       -2.5454399761300439     
   2.3230340902630222       -6.4319537803740703        3.7339297540443344     
   8.9197829874611436       -1.4517625435279726       -2.1717933022415949     
   3.4001518987664472       -6.3686448406445226       -6.1018932180867518     
  -1.3734785693872231       -7.6494870836607634        4.0008154588110276     
   4.6351771470105865       -4.3813636491506829       -3.9954435416303946     
   1.4888903501600477       -6.7677432139905003        5.1538285511142643     
  0.54141520451267855       -7.7700607607337089       -5.4377102423588370     
   1.6010910806773417       -7.5509412936831080        1.1157764883609895     
   3.0947131286022906       -8.8026367078526135       -1.7852285554240244     
   2.9285751939093800       -7.0977236290520356       -5.5942325483947188     
   6.3965428652482164       -1.9761138093446953       -6.4905961418415252     
   4.0526559910121378       -6.2066239104063285        5.8406692837947123     
   3.3512307733336133       -7.8946786690878348       0.74053026383479525     
   2.2056257721206212       -7.2667925591838580        5.7072850589736772     
   8.9727082595187984       -2.5309809998132673        1.1332852600083341     
  0.28989162575416560       -6.9740024611875908        3.8405305392114020     
   3.5741684787080481       -5.3028568561734906        5.7210398063941543     
   7.4803363347212786       -4.2554458096710963        4.0231582823440108     
   2.7357876853729586       -5.6108615401096387       -6.2840208152059107     
  -4.4837461471722007       -7.0438848130016112       -4.5309840501119565     
   8.0486426667500499       -2.4386836958842726        1.5504396831343541     
  -1.0852481492482011       -7.4565392116373710       -3.0612574379804922     
   5.1621123393499406       -6.1420644603495198       -3.0316229724752053     
   6.5883478352317661       -2.9544726130934307       0.78231461824968396     
  0.13964450999469433       -7.6981133819187955       0.16526573591583443     
  0.58528622130670804       -5.6715517099314559       -7.5503019005156000     
   5.5809819691806517       -5.2611799216698865       0.33052000148475125     
   8.6793829254341404       -3.3138180421436485        1.6874623884353688     
   7.9132739312266915       -3.4163137635160004        3.6799740256228208     
   4.7295474280152572       -5.7232362044465965       -5.9080105303697437     
   7.7359426308686317       -4.9613529042751647        2.1747005722064636     
   1.6005597059644709       -5.7853537276642211       -6.1943760068756690     
   4.1312817808834943       -7.9051516291902377       -3.1473372914855844     
   4.9361764800176537       -5.6427540007331318        4.2634374748339789     
   7.4183538717223882       -5.8576480621721121      -0.59568623199963167     
   7.3783352477654960       -4.6691241435370383       -3.7423441259307806     
   5.4775613717672238       -6.9984539023784880        3.1250552439422581     
   1.9615106196676730       -6.4784203206223268      -0.77591677942970838     
   2.3819079984944578       -8.5141772437315151       -3.4772192263938297     
   3.8408232164149587       -5.4965472507291109       -6.3658598313105088     
 -0.40864390150215973       -7.4691297019044827       -2.3242731137055412     
   4.2878861184084700       -4.6041186549245694        5.6525416650494673     
  -1.7094036410330584       -9.3436893591412620      -0.15098365760853547     
   4.6695922404771695       -5.2096108229076918        3.1281637107558686     
   7.0047056340706879       -2.5037672629477150       -5.8936016065067323     
   1.0800106362816559       -7.4348298249083937        5.8131722669970856     
   8.0002913407050880       -2.6186294566330299        4.3968526640277936     
   7.2098818617458704       -4.6098192306226906       0.60844276205901215     
   8.3003403122217332       -4.2378372833849447        1.7560659198404915     
   4.3702314594497906       -5.9041570172472593       -2.2731573707526476     
   5.6069295071321728       -5.7243318250302053        5.0175449378801069     
   3.6091624376232341       -6.6813651502509641      -0.57233223162392255     
   2.5061226328243218       -6.0358866458510620       -2.8855887037886387     
  -2.8249131350866037       -7.6786648635597441       0.96862139492282895     
  -1.2396917225612645       -8.5047894393203904       0.12407196576035970     
   3.4771303031699636       -6.3637748776559402       -2.2928727461903149     
   2.1503020112580056       -7.6752327120900601        3.6303464976090578     
   2.7895975866353799       -8.4676531185173207        3.2772413550731048     
   6.3701323361121691       -6.6028737480958881        2.4088917210803871     
   3.0467150773102820       -7.0063594529098170        1.9583656082639120     
   5.1612746886694891       -5.5291630768387492        1.1976850708678259     
   3.0666669093024606       -5.6962230520299961       -5.3386133891518188     
 -0.81117308182863146       -7.1572856373846729       0.32894136542623198     
   5.1024444594874669       -7.9789823186266071      -0.74225811745169379     
   3.2339811273369272       -7.7635146415566210       -2.0367023569270821     
   7.0761312634259728       -1.9109839250832343        5.8635783326601016     
  -1.8559151053845317       -8.2531786828930294        1.7569860302387583     
   4.9553948082562913       -6.7301861334589237       -2.2450122857662858     
 -0.24884780410363297       -8.2515824764608823       -4.7010151350457754     
   4.6053742411879179       -3.4368069347658556       -4.7220048657974090     
   7.1618580649057977       -5.7257561772979990        2.4725903871684021     
   9.3517194311112952       -1.2450929755773479      -0.36384080381066419     
  -1.7410397691704591       -8.5478474804107361        3.7594676687398989     
  0.28867736207557271       -9.1843319080914565        2.4113905664212489     
  -1.5041834840351556       -8.3716382488638228       -3.1038640166341547     
   6.1890799934250049       -5.8936959397991924       -4.1482768336230276     
  -5.8359557929844605E-003  -8.6943142320012932       -3.8287067926029517     
   8.7201387541752204       -3.7457379128266530      -0.42146735813220199     
   3.8308081398240788       -5.6980342584019237      -0.29617436963151311     
   9.2371366078656454       -2.2066992179523148       -9.9743856735870093E-002
  -1.1537734092695819       -9.0927623085585854       -2.4979598869381854     
   6.4257321866370294       -4.7256414370986528       -2.9151399870816825     
  -2.0448257130019694       -7.9647337688889488       0.37258364776446296     
   7.6048285025387683       -3.7286864613381381       0.34703417192087438     
   8.6812651213121867       -1.5468811396804940       -3.1452490435341680     
   1.4396759656219658       -8.4982038731786425       0.83850189853402546     
   7.6691558206117776       -3.7825992573262068       -4.1054075211711494     
  -2.0054951218682344       -9.1413598480629528       -1.4248683446585348     
   1.6545474466082271       -7.4226558292366391      -0.65596977034769721     
  0.44398854647622121       -7.7231547727941603       -3.5842121801076154     
   4.8803641301146277       -5.0616571235979864       -4.6908341043759529     
   9.2698306071984238      -0.29314775853301811      -0.66155824173398226     
   5.0852889550262876       -7.8331422441785961       -1.7335766694120267     
   1.4501371684348838       -6.6186332929574494       0.77669963374167461     
   4.6883956374960407       -5.6860018954634501       -1.3473451040915001     
   6.2748605638922674       -7.0401163957993527       0.48398009862339481     
   6.8716256415581816       -5.5411464556318144        3.4136748702945612     
   8.9954656207087638       -2.8670300763249021      -0.81151294979557853     
  0.46766551012229840       -6.1228251546159784       0.26916726839018912     
[...]
POINT_DATA  500
SCALARS radius float
LOOKUP_TABLE default
  0.50000000000000000     
  0.50000000000000000     
  0.50000000000000000     
  0.50000000000000000     
  0.50000000000000000     
  0.50000000000000000     
  0.50000000000000000     
  0.50000000000000000     
  0.50000000000000000     
  0.50000000000000000     
  0.50000000000000000     
  0.50000000000000000     
  0.50000000000000000     
  0.50000000000000000     
  0.50000000000000000     
  0.50000000000000000     
  0.50000000000000000     
  0.50000000000000000     
  0.50000000000000000     
  0.50000000000000000     
  0.50000000000000000     
  0.50000000000000000     
  0.50000000000000000     
  0.50000000000000000     
  0.50000000000000000     
  0.50000000000000000     
  0.50000000000000000     
  0.50000000000000000     
  0.50000000000000000     
  0.50000000000000000     
  0.50000000000000000     
  0.50000000000000000     
  0.50000000000000000     
  0.50000000000000000     
  0.50000000000000000     
  0.50000000000000000     
  0.50000000000000000     
  0.50000000000000000     
  0.50000000000000000     
  0.50000000000000000     
  0.50000000000000000     
  0.50000000000000000     
  0.50000000000000000     
  0.50000000000000000     
  0.50000000000000000     
  0.50000000000000000     
  0.50000000000000000     
  0.50000000000000000     
  0.50000000000000000     
  0.50000000000000000     
  0.50000000000000000     
  0.50000000000000000     
  0.50000000000000000     
  0.50000000000000000     
  0.50000000000000000     
  0.50000000000000000     
  0.50000000000000000     
  0.50000000000000000     
  0.50000000000000000     
  0.50000000000000000     
  0.50000000000000000     
  0.50000000000000000     
  0.50000000000000000     
  0.50000000000000000     
  0.50000000000000000     
  0.50000000000000000     
  0.50000000000000000     
  0.50000000000000000     
  0.50000000000000000     
  0.50000000000000000     
  0.50000000000000000     
  0.50000000000000000     
  0.50000000000000000     
  0.50000000000000000     
  0.50000000000000000     
  0.50000000000000000     
  0.50000000000000000     
  0.50000000000000000     
  0.50000000000000000     
  0.50000000000000000     
  0.50000000000000000     
  0.50000000000000000     
  0.50000000000000000     
  0.50000000000000000     
  0.50000000000000000     
  0.50000000000000000     
  0.50000000000000000     
  0.50000000000000000     
  0.50000000000000000     
  0.50000000000000000     
  0.50000000000000000     
  0.50000000000000000     
  0.50000000000000000     
  0.50000000000000000     
  0.50000000000000000     
  0.50000000000000000     
  0.50000000000000000     
  0.50000000000000000     
  0.50000000000000000     
  0.50000000000000000     
  0.50000000000000000     
  0.50000000000000000     
  0.50000000000000000     
  0.50000000000000000     
  0.50000000000000000     
  0.50000000000000000     
  0.50000000000000000     
  0.50000000000000000     
  0.50000000000000000     
  0.50000000000000000     
  0.50000000000000000     
  0.50000000000000000     
  0.50000000000000000     
  0.50000000000000000     
  0.50000000000000000     
  0.50000000000000000     
  0.50000000000000000     
  0.50000000000000000     
  0.50000000000000000     
  0.50000000000000000     
  0.50000000000000000     
  0.50000000000000000     
  0.50000000000000000     
  0.50000000000000000     
  0.50000000000000000     
  0.50000000000000000     
  0.50000000000000000     
  0.50000000000000000     
  0.50000000000000000     
  0.50000000000000000     
  0.50000000000000000     
  0.50000000000000000     
  0.50000000000000000     
  0.50000000000000000     
  0.50000000000000000     
  0.50000000000000000     
  0.50000000000000000     
  0.50000000000000000     
  0.50000000000000000     
  0.50000000000000000     
  0.50000000000000000     
  0.50000000000000000     
  0.50000000000000000     
  0.50000000000000000     
  0.50000000000000000     
  0.50000000000000000     
  0.50000000000000000     
  0.50000000000000000     
  0.50000000000000000     
  0.50000000000000000     
  0.50000000000000000     
  0.50000000000000000     
  0.50000000000000000     
  0.50000000000000000     
  0.50000000000000000     
  0.50000000000000000     
  0.50000000000000000     
  0.50000000000000000     
  0.50000000000000000     
  0.50000000000000000     
  0.50000000000000000     
  0.50000000000000000     
  0.50000000000000000     
  0.50000000000000000     
  0.50000000000000000     
  0.50000000000000000     
  0.50000000000000000     
  0.50000000000000000     
  0.50000000000000000     
  0.50000000000000000     
  0.50000000000000000     
  0.50000000000000000     
  0.50000000000000000     
  0.50000000000000000     
  0.50000000000000000     
  0.50000000000000000     
  0.50000000000000000     
  0.50000000000000000     
  0.50000000000000000     
  0.50000000000000000     
  0.50000000000000000     
  0.50000000000000000     
  0.50000000000000000     
  0.50000000000000000     
  0.50000000000000000     
  0.50000000000000000     
  0.50000000000000000     
  0.50000000000000000     
  0.50000000000000000     
  0.50000000000000000     
  0.50000000000000000     
  0.50000000000000000     
  0.50000000000000000     
  0.50000000000000000     
  0.50000000000000000     
  0.50000000000000000     
  0.50000000000000000     
  0.50000000000000000     
  0.50000000000000000     
  0.50000000000000000     
  0.50000000000000000     
  0.50000000000000000     
  0.50000000000000000     
  0.50000000000000000     
  0.50000000000000000     
  0.50000000000000000     
  0.50000000000000000     
  0.50000000000000000     
  0.50000000000000000     
  0.50000000000000000     
  0.50000000000000000     
  0.50000000000000000     
  0.50000000000000000     
  0.50000000000000000     
  0.50000000000000000     
  0.50000000000000000     
  0.50000000000000000     
  0.50000000000000000     
  0.50000000000000000     
  0.50000000000000000     
  0.50000000000000000     
  0.50000000000000000     
  0.50000000000000000     
  0.50000000000000000     
  0.50000000000000000     
  0.50000000000000000     
  0.50000000000000000     
  0.50000000000000000     
  0.50000000000000000     
  0.50000000000000000     
  0.50000000000000000     
  0.50000000000000000     
  0.50000000000000000     
  0.50000000000000000     
  0.50000000000000000     
  0.50000000000000000     
  0.50000000000000000     
  0.50000000000000000     
  0.50000000000000000     
  0.50000000000000000     
  0.50000000000000000     
  0.50000000000000000     
  0.50000000000000000     
  0.50000000000000000     
  0.50000000000000000     
  0.50000000000000000     
  0.50000000000000000     
  0.50000000000000000     
  0.50000000000000000     
  0.50000000000000000     
  0.50000000000000000     
  0.50000000000000000     
  0.50000000000000000     
  0.50000000000000000     
  0.50000000000000000     
  0.50000000000000000     
  0.50000000000000000     
  0.50000000000000000     
  0.50000000000000000     
  0.50000000000000000     
  0.50000000000000000     
  0.50000000000000000     
  0.50000000000000000     
  0.50000000000000000     
  0.50000000000000000     
  0.50000000000000000     
  0.50000000000000000     
  0.50000000000000000     
  0.50000000000000000     
  0.50000000000000000     
  0.50000000000000000     
  0.50000000000000000     
  0.50000000000000000     
  0.50000000000000000     
  0.50000000000000000     
  0.50000000000000000     
  0.50000000000000000     
  0.50000000000000000     
  0.50000000000000000     
  0.50000000000000000     
  0.50000000000000000     
  0.50000000000000000     
  0.50000000000000000     
  0.50000000000000000     
  0.50000000000000000     
  0.50000000000000000     
  0.50000000000000000     
  0.50000000000000000     
  0.50000000000000000     
  0.50000000000000000     
  0.50000000000000000     
  0.50000000000000000     
  0.50000000000000000     
  0.50000000000000000     
  0.50000000000000000     
  0.50000000000000000     
  0.50000000000000000     
  0.50000000000000000     
  0.50000000000000000     
  0.50000000000000000     
  0.50000000000000000     
  0.50000000000000000     
  0.50000000000000000     
  0.50000000000000000     
  0.50000000000000000     
  0.50000000000000000     
  0.50000000000000000     
  0.50000000000000000     
  0.50000000000000000     
  0.50000000000000000     
  0.50000000000000000     
  0.50000000000000000     
  0.50000000000000000     
  0.50000000000000000     
  0.50000000000000000     
  0.50000000000000000     
  0.50000000000000000     
  0.50000000000000000     
  0.50000000000000000     
  0.50000000000000000     
  0.50000000000000000     
  0.50000000000000000     
  0.50000000000000000     
  0.50000000000000000     
  0.50000000000000000     
  0.50000000000000000     
  0.50000000000000000     
  0.50000000000000000     
  0.50000000000000000     
  0.50000000000000000     
  0.50000000000000000     
  0.50000000000000000     
  0.50000000000000000     
  0.50000000000000000     
  0.50000000000000000     
  0.50000000000000000     
  0.50000000000000000     
  0.50000000000000000     
  0.50000000000000000     
  0.50000000000000000     
  0.50000000000000000     
  0.50000000000000000     
  0.50000000000000000     
  0.50000000000000000     
  0.50000000000000000     
  0.50000000000000000     
  0.50000000000000000     
  0.50000000000000000     
  0.50000000000000000     
  0.50000000000000000     
  0.50000000000000000     
  0.50000000000000000     
  0.50000000000000000     
  0.50000000000000000     
  0.50000000000000000     
  0.50000000000000000     
  0.50000000000000000     
  0.50000000000000000     
  0.50000000000000000     
  0.50000000000000000     
  0.50000000000000000     
  0.50000000000000000     
  0.50000000000000000     
  0.50000000000000000     
  0.50000000000000000     
  0.50000000000000000     
  0.50000000000000000     
  0.50000000000000000     
  0.50000000000000000     
  0.50000000000000000     
  0.50000000000000000     
  0.50000000000000000     
  0.50000000000000000     
  0.50000000000000000     
  0.50000000000000000     
  0.50000000000000000     
  0.50000000000000000     
  0.50000000000000000     
  0.50000000000000000     
  0.50000000000000000     
  0.50000000000000000     
  0.50000000000000000     
  0.50000000000000000     
  0.50000000000000000     
  0.50000000000000000     
  0.50000000000000000     
  0.50000000000000000     
  0.50000000000000000     
  0.50000000000000000     
  0.50000000000000000     
  0.50000000000000000     
  0.50000000000000000     
  0.50000000000000000     
  0.50000000000000000     
  0.50000000000000000     
  0.50000000000000000     
  0.50000000000000000     
  0.50000000000000000     
  0.50000000000000000     
  0.50000000000000000     
  0.50000000000000000     
  0.50000000000000000     
  0.50000000000000000     
  0.50000000000000000     
  0.50000000000000000     
  0.50000000000000000     
  0.50000000000000000     
  0.50000000000000000     
  0.50000000000000000     
  0.50000000000000000     
  0.50000000000000000     
  0.50000000000000000     
  0.50000000000000000     
  0.50000000000000000     
  0.50000000000000000     
  0.50000000000000000     
  0.50000000000000000     
  0.50000000000000000     
  0.50000000000000000     
  0.50000000000000000     
  0.50000000000000000     
  0.50000000000000000     
  0.50000000000000000     
  0.50000000000000000     
  0.50000000000000000     
  0.50000000000000000     
  0.50000000000000000     
  0.50000000000000000     
  0.50000000000000000     
  0.50000000000000000     
  0.50000000000000000     
  0.50000000000000000     
  0.50000000000000000     
  0.50000000000000000     
  0.50000000000000000     
  0.50000000000000000     
  0.50000000000000000     
  0.50000000000000000     
  0.50000000000000000     
  0.50000000000000000     
  0.50000000000000000     
  0.50000000000000000     
  0.50000000000000000     
  0.50000000000000000     
  0.50000000000000000     
  0.50000000000000000     
  0.50000000000000000     
  0.50000000000000000     
  0.50000000000000000     
  0.50000000000000000     
  0.50000000000000000     
  0.50000000000000000     
  0.50000000000000000     
  0.50000000000000000     
  0.50000000000000000     
  0.50000000000000000     
  0.50000000000000000     
  0.50000000000000000     
  0.50000000000000000     
  0.50000000000000000     
  0.50000000000000000     
  0.50000000000000000     
  0.50000000000000000     
  0.50000000000000000     
  0.50000000000000000     
  0.50000000000000000     
  0.50000000000000000     
  0.50000000000000000     
  0.50000000000000000     
  0.50000000000000000     
  0.50000000000000000     
  0.50000000000000000     
  0.50000000000000000     
  0.50000000000000000     
  0.50000000000000000     
  0.50000000000000000     
  0.50000000000000000     
  0.50000000000000000     
  0.50000000000000000     
  0.50000000000000000     
  0.50000000000000000     
  0.50000000000000000     
  0.50000000000000000     
  0.50000000000000000     
  0.50000000000000000     
  0.50000000000000000     
  0.50000000000000000     
  0.50000000000000000     
  0.50000000000000000     
  0.50000000000000000     
  0.50000000000000000     
  0.50000000000000000     
  0.50000000000000000     
  0.50000000000000000     
  0.50000000000000000     
  0.50000000000000000     
  0.50000000000000000     
  0.50000000000000000     
  0.50000000000000000     
  0.50000000000000000     
