# vtk DataFile Version 5.1
Data.vtk
ASCII
DATASET UNSTRUCTURED_GRID
 
POINTS 500 float
   5.0357469111740709       -7.3241924395509166        3.3535571135567679     
   6.7516811846789508       -4.1068605583811504       -3.1810564525896905     
  -1.4275378173376732       -7.0791558686416058       -3.3713638683770784     
   4.4102333662177982       -7.2769822288436421       -1.3061562472764046     
  -1.2792696784265627       -7.1784323222683266       -2.2706176202333315     
   2.3450596698560893       -6.8493655880569353       -2.5719578146834898     
   1.4720630342173271       -7.4728203143596970        4.8473562018574867     
   1.6363020147781613       -7.5424325248217388       0.95902194022819309     
   1.3881195580124945       -9.3964587034109748       0.16855765563626129     
   3.3547187301574497       -8.5225259693978224       -2.5187138078592142     
   3.2441443527271319       -6.3615577685100106       -4.9131575194929971     
   5.4017236258937720       -4.9578462969935773       -1.6178612946994022     
   3.6854081652661361       -7.0304460764752728        3.1909217067812450     
   2.2113680134544316       -9.0920444970158947       -1.6415326341183729     
   7.0680433129948410       -4.7190079101244899        1.1029626178741672     
   8.4450909493446975       -4.2084845360160736       -1.1030986063860169     
 -0.47307411023490142       -9.2969309006236855       -1.8955951087674467     
   2.2317898786526174       -6.4514958195538341      -0.12526738632306680     
 -0.33742847386483094       -8.5536611335968988        4.1196009638502016     
   6.1348853409676840       -4.8961310015157613       -3.1904035247435130     
   1.6157215352563994       -7.4543614052663889      -0.81617625641659530     
   4.6642841414300467       -8.2110578070305955       -1.0363318854729009     
   5.9684464814108038       -3.3652077874347492        5.6731277660008814     
   2.3983218712639194       -4.8250363314151183        7.7692642679162933     
 -0.97588962730609463       -8.2457677158582801       -2.0583467529193751     
  -3.5754590029610180       -8.7543736812902946      -0.89171959880558460     
   2.3346135634295764       -6.6539145131674449        2.6085518089396604     
  -1.6919693916049512       -7.7199110102140924      -0.60014729239874409     
   6.3979783252596345       -6.6134161808496712       -2.3541902873203941     
   8.6626273292002729       -3.0909842515439534        1.6784804880626407     
   3.6146911217898281       -5.7227497274932588      -0.59019232775275132     
   4.1187691020351389       -7.9326814540461870        3.2170767896211112     
   6.2449740419008481       -3.7211941142786435       -6.0942489039584151     
  -2.1852122950213695       -9.2435162059517637      -0.17771718241831885     
   1.8524162937511872       -8.6284996503793092       -3.4801256298444745     
   8.1914454640650511       -4.3406666861342300       -2.0667434800251110     
   6.2416490943160525       -4.5281122091527912      -0.13876182684736185     
   5.1340693578774603       -5.6411038252860104        5.6605934627510557     
 -0.27495748939110187       -8.2009615554208608        2.5050980454675407     
 -0.48698793992730288       -8.9589712656411518        3.1221891066138294     
 -0.37541687593724715       -7.4088163083259513       0.92127894355233964     
   4.1340272074591269       -5.8028787179724457        2.5824053737991317     
  -2.6104807660123952       -8.9867104168020848        1.6343644905187635     
 -0.68649321677052721       -7.3327433619974904        5.8443102164651410     
  0.16443965876254596       -8.3257301577558955       -4.5700053419890692     
   3.2338881294406092       -8.7948093087719528       -1.5639615924230439     
   8.4721845804967497       -2.1099950366324678        3.1931762324137862     
   7.6164922155813874       -5.6723153591212423      -0.16214201397751218     
   4.7659563921186212       -6.3195332990315416       -3.1066610242449397     
 -0.48928225173841372       -9.0032942824311366       -2.9824662717853716     
   2.5983916687592101       -8.1148653231122871       -1.1961962837959952     
   6.0583189163414204       -6.5353990595750817       -3.2916408834174371     
   1.1479492229110047       -7.4958899008304654        6.6696530018261965E-002
  0.61244025019324877       -9.4665545752067253      -0.50924282132501431     
   6.8862074927868795       -2.7362810075139103        5.5707114494242242     
 -0.16253764255541744       -6.7897408353038990       -5.2952951339025187     
   2.4003047126665247       -5.8492835993959469        4.4410107701001253     
   8.6654102707953022       -2.8649207342481127       -2.5620395542446497     
   6.7470504709093237       -6.5428905336837087       -1.3844979374024593     
   3.8467019527882433       -6.5454659956934451        4.0588643224185139     
  -1.4590873989284772       -6.8330928066710257        1.7865145488117486     
   6.4669557532249362       -3.1269332188770536       -3.1124953625546041     
   4.2051995603476975       -3.8677820118290822        6.7583968552304379     
   1.6274442878099553       -8.4172606591478623       -1.0895765040374557     
   2.9265029596881891       -8.3686944539377830       -3.4103038577649949     
   2.3996902357163128       -7.6654907164170822       -5.0726695859535740     
  0.33659566797087148       -7.8807274688063105       -3.1672647977310340     
   3.7985992112885625       -5.4881737809138009       0.53484928749887573     
  -2.5430388534717983       -8.3353011802161969      -0.57681950186940389     
   5.9533423141786121       -5.7752086134300420        2.1630746707579358     
   2.3613035388216788       -8.1795087416555123       -4.2148480933382872     
   3.3521604935442983       -5.3854676883060559        7.0637773307162499     
   2.1426348627361955       -6.3319228020877167       0.90141871877046698     
  0.33094864511828659       -8.2255336541188218        1.6820825640701866     
   9.0075151361160231       -1.7061759962534997        1.5777716451288437     
   6.2957203800459682       -7.0821391193004901      -0.66999896182582630     
   2.3605414953432877       -7.4228772779844752        5.4386396271924236     
   3.7156560172642932       -7.7484879107706401       0.49437922863867451     
   3.8143710200216443       -8.6669246863727203      -0.75906036309836655     
   5.0057160020388531       -5.3476458187346809       -2.4506178464688468     
   3.8571817199866554       -6.5423189350702273       -1.7041962170255642     
  -1.5280591535994377       -8.5545767432677291       -1.2831040391882909     
  0.31922536897833259       -7.3981065716921464        2.4552569396848747     
 -0.52820407218091081       -6.5101833819308981        3.0023078672424628     
   6.6568886518132677       -3.7443428347855643        4.0057742991461582     
   5.2410853851597041       -5.7742447561755972        3.1128600969307052     
   2.0327772895580267       -7.1018404273237046        1.7654298152717687     
   8.8104515661062823       -3.3267091606524586      -0.80383977736127665     
   5.1473351989833116       -4.6040094926513060        3.2595902255893572     
 -0.15931174584826946       -6.6295596153304999       -3.9544373619113244     
   2.2067499864037239       -7.8487538622984792       -2.9173351272917052     
   1.1051810313273458       -8.9746436089048345       -2.9127296610267055     
  -2.0944748354937786       -7.4171486995430280       0.26452601197479192     
   3.8369572036148423       -7.4559210761009709       -2.1903696990657742     
   4.0953361736460936       -8.3669363150880045       -1.8634641966059833     
   7.7102693416612533       -4.5329862946755348       -3.1258999326175556     
   2.3334953769730418       -8.1696083771474211        1.4552434114183517     
  -1.1392803129906930       -7.4296157595472438        4.4025494291837655     
   2.5556464787748792       -8.4038140194697792        3.6177724393633146     
   5.8575398782748751       -6.7996114866874047        3.1149388907766893     
   4.1005844985019877       -5.8567454395457510       -4.8051721419214841     
   7.5484412655717632      -0.93505741603567394       -3.9843711327693270     
   2.8681491117703173       -7.0610466205224931       -4.0939423473862391     
 -0.38612710173901865       -9.4815261448074803      -0.44987468317819512     
 -0.28258286689111434       -7.1376589805350203        3.7652967302564639     
   6.0708917869251184       -5.2105969708786706        3.0908536624270786     
   8.1834648635971394       -3.6992367522605223       -2.8340069866142881     
   2.7814752767073863       -6.1760839454307641      -0.91426639328497705     
   3.0680042863254440       -5.1500417327362262        4.1824024179859833     
   6.4229022851897826       -5.6151667215909180      -0.61718885044928384     
   2.9045235079363523       -6.8460949284499977       -1.6560075748498597     
   2.6982343555430863       -6.3437664205589392       -3.3676801286446305     
  -2.3281658958379818       -8.7247658907638961       -2.9506720157317234     
   4.3772029437766431       -6.3513426127513553      -0.83406324955917555     
   8.1151649202258564       -4.8371847868370947      -0.39489451223420857     
  -1.8691562252561364       -7.9905557158126248       -2.4494243212733275     
  -1.4320958087026496       -8.7430255690476653       -3.4276125485603210     
   7.0970526646674585       -5.9430515475639494       -2.1054137358231282     
   1.2259846650475075       -7.6763161953779369       -3.5776743262446011     
   4.4534343143934674       -5.0797664995086116        5.1736349572430909     
   4.4073338201555270       -7.4731604779817866       -3.8526793254385190     
   1.4495704706254298       -5.8095335265143229      -0.24307767060730834     
   5.3757085905155062       -4.2448048826927796        2.2133949255552321     
   4.6852360132716147       -4.7515642113980947        6.7322146973980015     
 -0.63429673168119816       -9.3698963257327339        1.4311893366875039     
[...]
POINT_DATA  500
SCALARS radius float
LOOKUP_TABLE default
  0.50000000000000000     
  0.50000000000000000     
  0.50000000000000000     
  0.50000000000000000     
  0.50000000000000000     
  0.50000000000000000     
  0.50000000000000000     
  0.50000000000000000     
  0.50000000000000000     
  0.50000000000000000     
  0.50000000000000000     
  0.50000000000000000     
  0.50000000000000000     
  0.50000000000000000     
  0.50000000000000000     
  0.50000000000000000     
  0.50000000000000000     
  0.50000000000000000     
  0.50000000000000000     
  0.50000000000000000     
  0.50000000000000000     
  0.50000000000000000     
  0.50000000000000000     
  0.50000000000000000     
  0.50000000000000000     
  0.50000000000000000     
  0.50000000000000000     
  0.50000000000000000     
  0.50000000000000000     
  0.50000000000000000     
  0.50000000000000000     
  0.50000000000000000     
  0.50000000000000000     
  0.50000000000000000     
  0.50000000000000000     
  0.50000000000000000     
  0.50000000000000000     
  0.50000000000000000     
  0.50000000000000000     
  0.50000000000000000     
  0.50000000000000000     
  0.50000000000000000     
  0.50000000000000000     
  0.50000000000000000     
  0.50000000000000000     
  0.50000000000000000     
  0.50000000000000000     
  0.50000000000000000     
  0.50000000000000000     
  0.50000000000000000     
  0.50000000000000000     
  0.50000000000000000     
  0.50000000000000000     
  0.50000000000000000     
  0.50000000000000000     
  0.50000000000000000     
  0.50000000000000000     
  0.50000000000000000     
  0.50000000000000000     
  0.50000000000000000     
  0.50000000000000000     
  0.50000000000000000     
  0.50000000000000000     
  0.50000000000000000     
  0.50000000000000000     
  0.50000000000000000     
  0.50000000000000000     
  0.50000000000000000     
  0.50000000000000000     
  0.50000000000000000     
  0.50000000000000000     
  0.50000000000000000     
  0.50000000000000000     
  0.50000000000000000     
  0.50000000000000000     
  0.50000000000000000     
  0.50000000000000000     
  0.50000000000000000     
  0.50000000000000000     
  0.50000000000000000     
  0.50000000000000000     
  0.50000000000000000     
  0.50000000000000000     
  0.50000000000000000     
  0.50000000000000000     
  0.50000000000000000     
  0.50000000000000000     
  0.50000000000000000     
  0.50000000000000000     
  0.50000000000000000     
  0.50000000000000000     
  0.50000000000000000     
  0.50000000000000000     
  0.50000000000000000     
  0.50000000000000000     
  0.50000000000000000     
  0.50000000000000000     
  0.50000000000000000     
  0.50000000000000000     
  0.50000000000000000     
  0.50000000000000000     
  0.50000000000000000     
  0.50000000000000000     
  0.50000000000000000     
  0.50000000000000000     
  0.50000000000000000     
  0.50000000000000000     
  0.50000000000000000     
  0.50000000000000000     
  0.50000000000000000     
  0.50000000000000000     
  0.50000000000000000     
  0.50000000000000000     
  0.50000000000000000     
  0.50000000000000000     
  0.50000000000000000     
  0.50000000000000000     
  0.50000000000000000     
  0.50000000000000000     
  0.50000000000000000     
  0.50000000000000000     
  0.50000000000000000     
  0.50000000000000000     
  0.50000000000000000     
  0.50000000000000000     
  0.50000000000000000     
  0.50000000000000000     
  0.50000000000000000     
  0.50000000000000000     
  0.50000000000000000     
  0.50000000000000000     
  0.50000000000000000     
  0.50000000000000000     
  0.50000000000000000     
  0.50000000000000000     
  0.50000000000000000     
  0.50000000000000000     
  0.50000000000000000     
  0.50000000000000000     
  0.50000000000000000     
  0.50000000000000000     
  0.50000000000000000     
  0.50000000000000000     
  0.50000000000000000     
  0.50000000000000000     
  0.50000000000000000     
  0.50000000000000000     
  0.50000000000000000     
  0.50000000000000000     
  0.50000000000000000     
  0.50000000000000000     
  0.50000000000000000     
  0.50000000000000000     
  0.50000000000000000     
  0.50000000000000000     
  0.50000000000000000     
  0.50000000000000000     
  0.50000000000000000     
  0.50000000000000000     
  0.50000000000000000     
  0.50000000000000000     
  0.50000000000000000     
  0.50000000000000000     
  0.50000000000000000     
  0.50000000000000000     
  0.50000000000000000     
  0.50000000000000000     
  0.50000000000000000     
  0.50000000000000000     
  0.50000000000000000     
  0.50000000000000000     
  0.50000000000000000     
  0.50000000000000000     
  0.50000000000000000     
  0.50000000000000000     
  0.50000000000000000     
  0.50000000000000000     
  0.50000000000000000     
  0.50000000000000000     
  0.50000000000000000     
  0.50000000000000000     
  0.50000000000000000     
  0.50000000000000000     
  0.50000000000000000     
  0.50000000000000000     
  0.50000000000000000     
  0.50000000000000000     
  0.50000000000000000     
  0.50000000000000000     
  0.50000000000000000     
  0.50000000000000000     
  0.50000000000000000     
  0.50000000000000000     
  0.50000000000000000     
  0.50000000000000000     
  0.50000000000000000     
  0.50000000000000000     
  0.50000000000000000     
  0.50000000000000000     
  0.50000000000000000     
  0.50000000000000000     
  0.50000000000000000     
  0.50000000000000000     
  0.50000000000000000     
  0.50000000000000000     
  0.50000000000000000     
  0.50000000000000000     
  0.50000000000000000     
  0.50000000000000000     
  0.50000000000000000     
  0.50000000000000000     
  0.50000000000000000     
  0.50000000000000000     
  0.50000000000000000     
  0.50000000000000000     
  0.50000000000000000     
  0.50000000000000000     
  0.50000000000000000     
  0.50000000000000000     
  0.50000000000000000     
  0.50000000000000000     
  0.50000000000000000     
  0.50000000000000000     
  0.50000000000000000     
  0.50000000000000000     
  0.50000000000000000     
  0.50000000000000000     
  0.50000000000000000     
  0.50000000000000000     
  0.50000000000000000     
  0.50000000000000000     
  0.50000000000000000     
  0.50000000000000000     
  0.50000000000000000     
  0.50000000000000000     
  0.50000000000000000     
  0.50000000000000000     
  0.50000000000000000     
  0.50000000000000000     
  0.50000000000000000     
  0.50000000000000000     
  0.50000000000000000     
  0.50000000000000000     
  0.50000000000000000     
  0.50000000000000000     
  0.50000000000000000     
  0.50000000000000000     
  0.50000000000000000     
  0.50000000000000000     
  0.50000000000000000     
  0.50000000000000000     
  0.50000000000000000     
  0.50000000000000000     
  0.50000000000000000     
  0.50000000000000000     
  0.50000000000000000     
  0.50000000000000000     
  0.50000000000000000     
  0.50000000000000000     
  0.50000000000000000     
  0.50000000000000000     
  0.50000000000000000     
  0.50000000000000000     
  0.50000000000000000     
  0.50000000000000000     
  0.50000000000000000     
  0.50000000000000000     
  0.50000000000000000     
  0.50000000000000000     
  0.50000000000000000     
  0.50000000000000000     
  0.50000000000000000     
  0.50000000000000000     
  0.50000000000000000     
  0.50000000000000000     
  0.50000000000000000     
  0.50000000000000000     
  0.50000000000000000     
  0.50000000000000000     
  0.50000000000000000     
  0.50000000000000000     
  0.50000000000000000     
  0.50000000000000000     
  0.50000000000000000     
  0.50000000000000000     
  0.50000000000000000     
  0.50000000000000000     
  0.50000000000000000     
  0.50000000000000000     
  0.50000000000000000     
  0.50000000000000000     
  0.50000000000000000     
  0.50000000000000000     
  0.50000000000000000     
  0.50000000000000000     
  0.50000000000000000     
  0.50000000000000000     
  0.50000000000000000     
  0.50000000000000000     
  0.50000000000000000     
  0.50000000000000000     
  0.50000000000000000     
  0.50000000000000000     
  0.50000000000000000     
  0.50000000000000000     
  0.50000000000000000     
  0.50000000000000000     
  0.50000000000000000     
  0.50000000000000000     
  0.50000000000000000     
  0.50000000000000000     
  0.50000000000000000     
  0.50000000000000000     
  0.50000000000000000     
  0.50000000000000000     
  0.50000000000000000     
  0.50000000000000000     
  0.50000000000000000     
  0.50000000000000000     
  0.50000000000000000     
  0.50000000000000000     
  0.50000000000000000     
  0.50000000000000000     
  0.50000000000000000     
  0.50000000000000000     
  0.50000000000000000     
  0.50000000000000000     
  0.50000000000000000     
  0.50000000000000000     
  0.50000000000000000     
  0.50000000000000000     
  0.50000000000000000     
  0.50000000000000000     
  0.50000000000000000     
  0.50000000000000000     
  0.50000000000000000     
  0.50000000000000000     
  0.50000000000000000     
  0.50000000000000000     
  0.50000000000000000     
  0.50000000000000000     
  0.50000000000000000     
  0.50000000000000000     
  0.50000000000000000     
  0.50000000000000000     
  0.50000000000000000     
  0.50000000000000000     
  0.50000000000000000     
  0.50000000000000000     
  0.50000000000000000     
  0.50000000000000000     
  0.50000000000000000     
  0.50000000000000000     
  0.50000000000000000     
  0.50000000000000000     
  0.50000000000000000     
  0.50000000000000000     
  0.50000000000000000     
  0.50000000000000000     
  0.50000000000000000     
  0.50000000000000000     
  0.50000000000000000     
  0.50000000000000000     
  0.50000000000000000     
  0.50000000000000000     
  0.50000000000000000     
  0.50000000000000000     
  0.50000000000000000     
  0.50000000000000000     
  0.50000000000000000     
  0.50000000000000000     
  0.50000000000000000     
  0.50000000000000000     
  0.50000000000000000     
  0.50000000000000000     
  0.50000000000000000     
  0.50000000000000000     
  0.50000000000000000     
  0.50000000000000000     
  0.50000000000000000     
  0.50000000000000000     
  0.50000000000000000     
  0.50000000000000000     
  0.50000000000000000     
  0.50000000000000000     
  0.50000000000000000     
  0.50000000000000000     
  0.50000000000000000     
  0.50000000000000000     
  0.50000000000000000     
  0.50000000000000000     
  0.50000000000000000     
  0.50000000000000000     
  0.50000000000000000     
  0.50000000000000000     
  0.50000000000000000     
  0.50000000000000000     
  0.50000000000000000     
  0.50000000000000000     
  0.50000000000000000     
  0.50000000000000000     
  0.50000000000000000     
  0.50000000000000000     
  0.50000000000000000     
  0.50000000000000000     
  0.50000000000000000     
  0.50000000000000000     
  0.50000000000000000     
  0.50000000000000000     
  0.50000000000000000     
  0.50000000000000000     
  0.50000000000000000     
  0.50000000000000000     
  0.50000000000000000     
  0.50000000000000000     
  0.50000000000000000     
  0.50000000000000000     
  0.50000000000000000     
  0.50000000000000000     
  0.50000000000000000     
  0.50000000000000000     
  0.50000000000000000     
  0.50000000000000000     
  0.50000000000000000     
  0.50000000000000000     
  0.50000000000000000     
  0.50000000000000000     
  0.50000000000000000     
  0.50000000000000000     
  0.50000000000000000     
  0.50000000000000000     
  0.50000000000000000     
  0.50000000000000000     
  0.50000000000000000     
  0.50000000000000000     
  0.50000000000000000     
  0.50000000000000000     
  0.50000000000000000     
  0.50000000000000000     
  0.50000000000000000     
  0.50000000000000000     
  0.50000000000000000     
  0.50000000000000000     
  0.50000000000000000     
  0.50000000000000000     
  0.50000000000000000     
  0.50000000000000000     
  0.50000000000000000     
  0.50000000000000000     
  0.50000000000000000     
  0.50000000000000000     
  0.50000000000000000     
  0.50000000000000000     
  0.50000000000000000     
  0.50000000000000000     
  0.50000000000000000     
  0.50000000000000000     
  0.50000000000000000     
  0.50000000000000000     
  0.50000000000000000     
  0.50000000000000000     
  0.50000000000000000     
  0.50000000000000000     
  0.50000000000000000     
  0.50000000000000000     
  0.50000000000000000     
  0.50000000000000000     
  0.50000000000000000     
  0.50000000000000000     
  0.50000000000000000     
  0.50000000000000000     
  0.50000000000000000     
  0.50000000000000000     
  0.50000000000000000     
  0.50000000000000000     
  0.50000000000000000     
  0.50000000000000000     
  0.50000000000000000     
  0.50000000000000000     
  0.50000000000000000     
  0.50000000000000000     
  0.50000000000000000     
  0.50000000000000000     
  0.50000000000000000     
  0.50000000000000000     
  0.50000000000000000     
  0.50000000000000000     
  0.50000000000000000     
  0.50000000000000000     
  0.50000000000000000     
  0.50000000000000000     
  0.50000000000000000     
  0.50000000000000000     
  0.50000000000000000     
  0.50000000000000000     
  0.50000000000000000     
  0.50000000000000000     
  0.50000000000000000     
  0.50000000000000000     
  0.50000000000000000     
