# vtk DataFile Version 5.1
Data.vtk
ASCII
DATASET UNSTRUCTURED_GRID
 
POINTS 500 float
  -1.3118026352940306       -9.3588645918926243       0.97001123382455767     
   2.8181767344065243       -7.9128975976541875       -1.5123017550980686     
   8.2005085023899973       -4.6319720192317044       -1.2263868747155413     
  -1.1822781896659738       -7.5017981753731604       -1.8783447321746967     
  -1.6502809508649772       -7.3078478101507134       -3.7494903203619803     
   5.9324018656696147       -4.6162999643436624      -0.74516026143988245     
   6.4352822372779332       -5.2895370100708874        2.1496103802451874     
   2.4916607415637135       -7.3382414534697151       0.35582117817628905     
  0.22023989422887791       -7.5114246770114095       -5.0192008952436122     
   4.2927902911034783       -8.3724005279313278       -1.2928113137624058     
  -1.6570319791441668       -7.4702127745714995       -5.0324136362816549     
   7.8826919937417941       -2.4631110246717944       -4.6928252950846163     
   3.4411574287937996       -6.8948116074744830        3.6227087144363925     
   6.6648107052127674       -5.2975376277405983      -0.70516956098872485     
 -0.40997366802568735       -8.5405551258816992       0.41399797587158760     
   4.8101468005999584       -5.2884346813820766       -2.9096797560582806     
  0.65165238358958044       -6.5856411280937417       -3.8298146887229696     
  -3.4070398949291842       -8.2170751074830122      -0.22395410107389815     
 -0.84187668501554402       -8.7721151305755285        3.5488061821915253     
   1.3419997587094845       -6.5067914345331284       -5.4268217062233770     
   2.5844286306874173       -6.9657593981531916       -1.2917048015826287     
   8.5825796080130488       -3.9905470836686643      -0.55694164155118653     
   7.5959370180157952       -2.9473618050780854        4.7785864780197453     
   6.3725647092436164       -4.6355619041985614        5.2189011971879120     
   7.5150381618666531       -3.9114171842670209       -1.3666856057538590     
   9.1604027636891203       -1.8322007633469009       -1.2861165034841802     
   4.0824591825244738       -7.3585321216362543        1.8805681039910958     
   8.7508119066755246       -1.7269779219385870       -2.5423251917452756     
   3.3579263904620995       -6.9601966176594745       -5.4789436704063474     
   2.4270276629298340       -6.6292778434654931        2.9643179112375142     
   5.8896537986534661       -3.3134952546483971       0.29221993267408714     
  -4.8965261941969512E-002  -8.2909104822334267        3.1753177644507327     
   4.9321408392760890       -6.5490751959070153       -4.7319623677560640     
   6.4378359107284249       -5.8762401246362765        7.9253597752438149E-002
   1.1750851919009013       -9.3836472267447331      -0.90375068963980887     
   8.0710466385366075       -3.0613728686084007       -3.8695428364734274     
  0.73249844010363030       -5.8437607920663526       0.77594073073758041     
  0.81581298296385829       -6.8617360111209917        5.9320427431118103     
   6.3689210256083699       -4.2255006509700532        3.7912426070027023     
  0.24358333680688088       -8.0579164251065958        5.0259913653619703     
  0.50493378003078160       -8.5104802494321063        1.0738440457675547E-002
  -1.2032973229625856       -7.8109825366572236        5.2355302271047917     
   1.0678065510165751       -9.3317990984903805        1.4201976166360262     
   3.6051563720293514       -4.8308231312739975        7.3394029670870777     
   2.9758223856202322       -5.1455103752040863       -7.3589279375115915     
   1.2758299421342465       -9.0028340020891520       -2.7518493586980792     
   7.5763912790080692       -4.8425865660209588        3.0552682288476616     
   3.1771994175921954       -5.8755394449506602       -2.8020374927408187     
   3.8677811846029226       -6.6820165339859052       -3.7592912623308563     
   5.4484850370028024       -7.7408707015336473       0.67333094796862980     
   2.7585347843459198       -6.0282615140353188       -3.9690879240822712     
   1.2884744598906905       -8.1744569379437859       -4.6656244352147098     
   3.0736234379702938       -7.1132649485232156      -0.42712842241362220     
   6.2424206754536087       -7.1329088018043629       0.63748266213499705     
   7.6850679544919718       -5.1690623046693265        2.1143218900509173     
   2.8802637686906039       -6.0353760110495234       -5.4153621811152917     
   4.6125142484204789       -8.2835370224869891       0.59183223234921178     
   5.3380462664015251       -6.9404681486953068       -3.6787419120836589     
   6.6455815552268271       -3.3662314664438493       -4.0197204201893388     
   2.1036788578787213       -8.1009405722123464        2.2117910841211068     
   4.2952403089193503       -6.3918348437025641       0.49327319425491428     
   6.4200080684999072       -3.6157453009394822       -2.1374468389432715     
   5.7653272144440617       -4.5006744576496391        6.0544532981991495     
   4.3834439511327465       -5.1890650166384864       -1.9096220812176985     
   1.2248295094275430       -7.0247454025878833       -6.2771445308823095     
   2.1478241163345486       -6.6433788284408450       -6.3285454359425497     
   7.0033621179874448       -4.7748784191519302       -1.4955474646557001     
  -1.2218365602202781       -7.4394338612288413        4.1698192207609850     
   4.1744045622474513       -8.5282630801726587      -0.30907445855396759     
  -8.3028121456889342E-002  -8.2623204119618681        2.1746959556068699     
   2.1348929430111703       -5.8155744739131165       -4.7260848760250074     
   4.5588672620295112       -6.5642192323822703        5.1355159437850766     
 -0.41991209847395655       -7.2905771104717472        4.8761259965057198     
   3.9713274238607581       -6.1072964173072695        2.2128132056776506     
   8.5488065862384079       -3.6216053825245020        1.8113362048386610     
   5.4425040361279322       -7.7037779623982390       -1.1314369566664093     
   4.5637085929014667       -4.7218196271638861        6.8595854789734734     
   1.0951681823269876       -7.6083299161203595      -0.69551172198877675     
   5.8249433758526319       -5.0059517205762409       0.48550185252968725     
 -0.69379548933448387       -6.6295492161104574       -1.9109560083566768     
 -0.69439830057146357       -9.4727407880954235       0.19022338351844381     
   4.4646107112937268E-002  -9.4226415223740290       -1.2090825119715458     
   5.2860031391281899       -6.2752060609664486        2.7654625777123600     
   5.2476927115426424       -7.4876642685974373        2.5781160941812531     
   8.0174574971294028       -2.1913173976647098        4.2486310690449693     
   1.2920049591427458       -8.3900073667845572        1.7043099307112446     
   2.9078759928778974       -7.0479733417032868        1.3666614980133338     
   3.4123600023178624       -5.5587287826546667       -1.7976899950896852     
   8.8967843354781682      -0.13060087291541425        3.2116393626278779     
   2.2205618053949707       -9.1819626221230486       -1.0028735995695519     
   6.2835350191332511       -4.7651854291279410       -3.3849377752649281     
  -2.2465064735615745       -8.4153085546986155       -3.7894865219960012     
   4.3025819650568202       -5.2687613059193570      -0.85384829987797972     
   1.5264618054734693       -6.9051792437411308       -3.1543496725860161     
   4.8945234731006995       -7.9065987205660573       -1.9440221115174847     
   3.2872506008732607       -7.5766728324138342       -4.6944229852677815     
   8.9968003893906356       -1.8163627603075696        2.4512497286464745     
   1.0650511108562275       -9.4328113307215258       0.36037558525522928     
  0.20938761816967755       -9.2024116267523599        2.3499030850399447     
   4.3951746627417529       -8.0240341585185000        2.5586406015307186     
 -0.82163473399592890       -7.2905031491443939       -3.0303615347168393     
   6.6089056476899843       -2.5692640649501359       -5.3907885424979884     
   8.3017724274856324       -4.0610948146662382       -2.1769853900524807     
  -1.6620293691055175       -9.3446039836895061      -0.40699728672166052     
   8.5675253099641591       -3.9968670081033109       0.49920162730352124     
   1.2261818138926319       -8.5117050023659448       0.71387689383413966     
   4.3225048182087935       -7.9832863556260065       -2.7718730970434895     
   1.1025808089100566       -8.0815629086478733       -3.1000948846265670     
   2.4255081736174735       -5.7218142471018352        3.3843905552342113     
 -0.66182141566586228       -7.8045464694892237       -1.0799792157689578     
   6.2932814020318126       -4.2109055032378571        9.5096050923856340E-002
   7.7833886330451136       -3.2375433959858708       0.77109691546406667     
   3.6011825126409089       -4.5143952756312080       -6.0811979717401980     
  -2.7491415994970363       -8.1581873273528949       -2.0494158868274570     
   3.8924493055660427       -5.5954027265324200        3.9242740867366906E-002
  -2.2788614700584504       -8.7700206349477572       -2.8539095880618293     
   2.8072325895575432       -5.1857499578044957       -6.2045189616835055     
   8.5543309972374093       -3.1941507945555454       -2.6211309471376514     
   5.7168069715757657       -7.3036975889201114       -2.0058745410271954     
   4.8633560886024645       -7.1031978463266290        4.3228707389923682E-002
   5.0475814234465730       -8.0421283390587064      -0.27599861746653698     
  -1.1445866421591855       -7.7259461239632037        1.8170320614940860     
   7.4666033685889612       -1.6652222293564340        4.9441784518453851     
   9.2216401960520589       -2.2508681101056247       -1.0798434913118042E-002
   5.5325035402823701       -4.8585719092794495        2.2363295031408978     
[...]
POINT_DATA  500
SCALARS radius float
LOOKUP_TABLE default
  0.50000000000000000     
  0.50000000000000000     
  0.50000000000000000     
  0.50000000000000000     
  0.50000000000000000     
  0.50000000000000000     
  0.50000000000000000     
  0.50000000000000000     
  0.50000000000000000     
  0.50000000000000000     
  0.50000000000000000     
  0.50000000000000000     
  0.50000000000000000     
  0.50000000000000000     
  0.50000000000000000     
  0.50000000000000000     
  0.50000000000000000     
  0.50000000000000000     
  0.50000000000000000     
  0.50000000000000000     
  0.50000000000000000     
  0.50000000000000000     
  0.50000000000000000     
  0.50000000000000000     
  0.50000000000000000     
  0.50000000000000000     
  0.50000000000000000     
  0.50000000000000000     
  0.50000000000000000     
  0.50000000000000000     
  0.50000000000000000     
  0.50000000000000000     
  0.50000000000000000     
  0.50000000000000000     
  0.50000000000000000     
  0.50000000000000000     
  0.50000000000000000     
  0.50000000000000000     
  0.50000000000000000     
  0.50000000000000000     
  0.50000000000000000     
  0.50000000000000000     
  0.50000000000000000     
  0.50000000000000000     
  0.50000000000000000     
  0.50000000000000000     
  0.50000000000000000     
  0.50000000000000000     
  0.50000000000000000     
  0.50000000000000000     
  0.50000000000000000     
  0.50000000000000000     
  0.50000000000000000     
  0.50000000000000000     
  0.50000000000000000     
  0.50000000000000000     
  0.50000000000000000     
  0.50000000000000000     
  0.50000000000000000     
  0.50000000000000000     
  0.50000000000000000     
  0.50000000000000000     
  0.50000000000000000     
  0.50000000000000000     
  0.50000000000000000     
  0.50000000000000000     
  0.50000000000000000     
  0.50000000000000000     
  0.50000000000000000     
  0.50000000000000000     
  0.50000000000000000     
  0.50000000000000000     
  0.50000000000000000     
  0.50000000000000000     
  0.50000000000000000     
  0.50000000000000000     
  0.50000000000000000     
  0.50000000000000000     
  0.50000000000000000     
  0.50000000000000000     
  0.50000000000000000     
  0.50000000000000000     
  0.50000000000000000     
  0.50000000000000000     
  0.50000000000000000     
  0.50000000000000000     
  0.50000000000000000     
  0.50000000000000000     
  0.50000000000000000     
  0.50000000000000000     
  0.50000000000000000     
  0.50000000000000000     
  0.50000000000000000     
  0.50000000000000000     
  0.50000000000000000     
  0.50000000000000000     
  0.50000000000000000     
  0.50000000000000000     
  0.50000000000000000     
  0.50000000000000000     
  0.50000000000000000     
  0.50000000000000000     
  0.50000000000000000     
  0.50000000000000000     
  0.50000000000000000     
  0.50000000000000000     
  0.50000000000000000     
  0.50000000000000000     
  0.50000000000000000     
  0.50000000000000000     
  0.50000000000000000     
  0.50000000000000000     
  0.50000000000000000     
  0.50000000000000000     
  0.50000000000000000     
  0.50000000000000000     
  0.50000000000000000     
  0.50000000000000000     
  0.50000000000000000     
  0.50000000000000000     
  0.50000000000000000     
  0.50000000000000000     
  0.50000000000000000     
  0.50000000000000000     
  0.50000000000000000     
  0.50000000000000000     
  0.50000000000000000     
  0.50000000000000000     
  0.50000000000000000     
  0.50000000000000000     
  0.50000000000000000     
  0.50000000000000000     
  0.50000000000000000     
  0.50000000000000000     
  0.50000000000000000     
  0.50000000000000000     
  0.50000000000000000     
  0.50000000000000000     
  0.50000000000000000     
  0.50000000000000000     
  0.50000000000000000     
  0.50000000000000000     
  0.50000000000000000     
  0.50000000000000000     
  0.50000000000000000     
  0.50000000000000000     
  0.50000000000000000     
  0.50000000000000000     
  0.50000000000000000     
  0.50000000000000000     
  0.50000000000000000     
  0.50000000000000000     
  0.50000000000000000     
  0.50000000000000000     
  0.50000000000000000     
  0.50000000000000000     
  0.50000000000000000     
  0.50000000000000000     
  0.50000000000000000     
  0.50000000000000000     
  0.50000000000000000     
  0.50000000000000000     
  0.50000000000000000     
  0.50000000000000000     
  0.50000000000000000     
  0.50000000000000000     
  0.50000000000000000     
  0.50000000000000000     
  0.50000000000000000     
  0.50000000000000000     
  0.50000000000000000     
  0.50000000000000000     
  0.50000000000000000     
  0.50000000000000000     
  0.50000000000000000     
  0.50000000000000000     
  0.50000000000000000     
  0.50000000000000000     
  0.50000000000000000     
  0.50000000000000000     
  0.50000000000000000     
  0.50000000000000000     
  0.50000000000000000     
  0.50000000000000000     
  0.50000000000000000     
  0.50000000000000000     
  0.50000000000000000     
  0.50000000000000000     
  0.50000000000000000     
  0.50000000000000000     
  0.50000000000000000     
  0.50000000000000000     
  0.50000000000000000     
  0.50000000000000000     
  0.50000000000000000     
  0.50000000000000000     
  0.50000000000000000     
  0.50000000000000000     
  0.50000000000000000     
  0.50000000000000000     
  0.50000000000000000     
  0.50000000000000000     
  0.50000000000000000     
  0.50000000000000000     
  0.50000000000000000     
  0.50000000000000000     
  0.50000000000000000     
  0.50000000000000000     
  0.50000000000000000     
  0.50000000000000000     
  0.50000000000000000     
  0.50000000000000000     
  0.50000000000000000     
  0.50000000000000000     
  0.50000000000000000     
  0.50000000000000000     
  0.50000000000000000     
  0.50000000000000000     
  0.50000000000000000     
  0.50000000000000000     
  0.50000000000000000     
  0.50000000000000000     
  0.50000000000000000     
  0.50000000000000000     
  0.50000000000000000     
  0.50000000000000000     
  0.50000000000000000     
  0.50000000000000000     
  0.50000000000000000     
  0.50000000000000000     
  0.50000000000000000     
  0.50000000000000000     
  0.50000000000000000     
  0.50000000000000000     
  0.50000000000000000     
  0.50000000000000000     
  0.50000000000000000     
  0.50000000000000000     
  0.50000000000000000     
  0.50000000000000000     
  0.50000000000000000     
  0.50000000000000000     
  0.50000000000000000     
  0.50000000000000000     
  0.50000000000000000     
  0.50000000000000000     
  0.50000000000000000     
  0.50000000000000000     
  0.50000000000000000     
  0.50000000000000000     
  0.50000000000000000     
  0.50000000000000000     
  0.50000000000000000     
  0.50000000000000000     
  0.50000000000000000     
  0.50000000000000000     
  0.50000000000000000     
  0.50000000000000000     
  0.50000000000000000     
  0.50000000000000000     
  0.50000000000000000     
  0.50000000000000000     
  0.50000000000000000     
  0.50000000000000000     
  0.50000000000000000     
  0.50000000000000000     
  0.50000000000000000     
  0.50000000000000000     
  0.50000000000000000     
  0.50000000000000000     
  0.50000000000000000     
  0.50000000000000000     
  0.50000000000000000     
  0.50000000000000000     
  0.50000000000000000     
  0.50000000000000000     
  0.50000000000000000     
  0.50000000000000000     
  0.50000000000000000     
  0.50000000000000000     
  0.50000000000000000     
  0.50000000000000000     
  0.50000000000000000     
  0.50000000000000000     
  0.50000000000000000     
  0.50000000000000000     
  0.50000000000000000     
  0.50000000000000000     
  0.50000000000000000     
  0.50000000000000000     
  0.50000000000000000     
  0.50000000000000000     
  0.50000000000000000     
  0.50000000000000000     
  0.50000000000000000     
  0.50000000000000000     
  0.50000000000000000     
  0.50000000000000000     
  0.50000000000000000     
  0.50000000000000000     
  0.50000000000000000     
  0.50000000000000000     
  0.50000000000000000     
  0.50000000000000000     
  0.50000000000000000     
  0.50000000000000000     
  0.50000000000000000     
  0.50000000000000000     
  0.50000000000000000     
  0.50000000000000000     
  0.50000000000000000     
  0.50000000000000000     
  0.50000000000000000     
  0.50000000000000000     
  0.50000000000000000     
  0.50000000000000000     
  0.50000000000000000     
  0.50000000000000000     
  0.50000000000000000     
  0.50000000000000000     
  0.50000000000000000     
  0.50000000000000000     
  0.50000000000000000     
  0.50000000000000000     
  0.50000000000000000     
  0.50000000000000000     
  0.50000000000000000     
  0.50000000000000000     
  0.50000000000000000     
  0.50000000000000000     
  0.50000000000000000     
  0.50000000000000000     
  0.50000000000000000     
  0.50000000000000000     
  0.50000000000000000     
  0.50000000000000000     
  0.50000000000000000     
  0.50000000000000000     
  0.50000000000000000     
  0.50000000000000000     
  0.50000000000000000     
  0.50000000000000000     
  0.50000000000000000     
  0.50000000000000000     
  0.50000000000000000     
  0.50000000000000000     
  0.50000000000000000     
  0.50000000000000000     
  0.50000000000000000     
  0.50000000000000000     
  0.50000000000000000     
  0.50000000000000000     
  0.50000000000000000     
  0.50000000000000000     
  0.50000000000000000     
  0.50000000000000000     
  0.50000000000000000     
  0.50000000000000000     
  0.50000000000000000     
  0.50000000000000000     
  0.50000000000000000     
  0.50000000000000000     
  0.50000000000000000     
  0.50000000000000000     
  0.50000000000000000     
  0.50000000000000000     
  0.50000000000000000     
  0.50000000000000000     
  0.50000000000000000     
  0.50000000000000000     
  0.50000000000000000     
  0.50000000000000000     
  0.50000000000000000     
  0.50000000000000000     
  0.50000000000000000     
  0.50000000000000000     
  0.50000000000000000     
  0.50000000000000000     
  0.50000000000000000     
  0.50000000000000000     
  0.50000000000000000     
  0.50000000000000000     
  0.50000000000000000     
  0.50000000000000000     
  0.50000000000000000     
  0.50000000000000000     
  0.50000000000000000     
  0.50000000000000000     
  0.50000000000000000     
  0.50000000000000000     
  0.50000000000000000     
  0.50000000000000000     
  0.50000000000000000     
  0.50000000000000000     
  0.50000000000000000     
  0.50000000000000000     
  0.50000000000000000     
  0.50000000000000000     
  0.50000000000000000     
  0.50000000000000000     
  0.50000000000000000     
  0.50000000000000000     
  0.50000000000000000     
  0.50000000000000000     
  0.50000000000000000     
  0.50000000000000000     
  0.50000000000000000     
  0.50000000000000000     
  0.50000000000000000     
  0.50000000000000000     
  0.50000000000000000     
  0.50000000000000000     
  0.50000000000000000     
  0.50000000000000000     
  0.50000000000000000     
  0.50000000000000000     
  0.50000000000000000     
  0.50000000000000000     
  0.50000000000000000     
  0.50000000000000000     
  0.50000000000000000     
  0.50000000000000000     
  0.50000000000000000     
  0.50000000000000000     
  0.50000000000000000     
  0.50000000000000000     
  0.50000000000000000     
  0.50000000000000000     
  0.50000000000000000     
  0.50000000000000000     
  0.50000000000000000     
  0.50000000000000000     
  0.50000000000000000     
  0.50000000000000000     
  0.50000000000000000     
  0.50000000000000000     
  0.50000000000000000     
  0.50000000000000000     
  0.50000000000000000     
  0.50000000000000000     
  0.50000000000000000     
  0.50000000000000000     
  0.50000000000000000     
  0.50000000000000000     
  0.50000000000000000     
  0.50000000000000000     
  0.50000000000000000     
  0.50000000000000000     
  0.50000000000000000     
  0.50000000000000000     
  0.50000000000000000     
  0.50000000000000000     
  0.50000000000000000     
  0.50000000000000000     
  0.50000000000000000     
  0.50000000000000000     
  0.50000000000000000     
  0.50000000000000000     
  0.50000000000000000     
  0.50000000000000000     
  0.50000000000000000     
  0.50000000000000000     
  0.50000000000000000     
  0.50000000000000000     
  0.50000000000000000     
  0.50000000000000000     
  0.50000000000000000     
  0.50000000000000000     
  0.50000000000000000     
  0.50000000000000000     
  0.50000000000000000     
  0.50000000000000000     
  0.50000000000000000     
  0.50000000000000000     
  0.50000000000000000     
  0.50000000000000000     
  0.50000000000000000     
  0.50000000000000000     
  0.50000000000000000     
  0.50000000000000000     
  0.50000000000000000     
  0.50000000000000000     
  0.50000000000000000     
  0.50000000000000000     
  0.50000000000000000     
  0.50000000000000000     
  0.50000000000000000     
  0.50000000000000000     
  0.50000000000000000     
  0.50000000000000000     
  0.50000000000000000     
  0.50000000000000000     
  0.50000000000000000     
  0.50000000000000000     
  0.50000000000000000     
  0.50000000000000000     
  0.50000000000000000     
  0.50000000000000000     
  0.50000000000000000     
  0.50000000000000000     
