# vtk DataFile Version 5.1
Data.vtk
ASCII
DATASET UNSTRUCTURED_GRID
 
POINTS 500 float
   1.4395661381110081       -7.0611622419153459        6.1760013902838962     
   1.9117362136591263       -6.6141692978151907       -3.6518316382517271     
   8.8133985923425833       -2.3476472721135182       -2.4191616804707712     
   7.0855276677591004       -4.6368011713438220       -1.8216286290636252     
   7.9424308368561229       -5.0132822648699849       -1.4265558035158583     
  -1.7296072595526986       -7.4586061453047900       -1.4679753863382201     
   3.9422754860817322       -4.3354695401705197        7.0065488018584938     
 -0.69775716851047331       -7.5845873479697463        1.2863378807328112     
   7.9468261727219875       -1.6708321970664586      -0.73887286883731507     
   1.3966934970313745       -4.9787979527071222       -7.5490024114147003     
  -1.5922576777391755       -8.2205749747188985       -2.1140929706702938     
  -1.6693627068959407       -6.9542636082352622      -0.14843695955853187     
   5.2185917457077373       -6.2759202232930678        2.7937301716346199     
   1.3812552843546908       -5.8598573134699983       -4.7581971313413973     
   6.5797097403032678       -3.8834595007998427        3.7400423751424579     
  -4.0450526517064418       -8.5842791514943109       0.24779544191158967     
   8.0539020229981055      -0.60080210843160708       -4.5234971100013617     
   2.8679477589922255       -9.0550699496498694        6.9914258804773061E-002
   3.9389166482880182       -4.5475337497594870        4.6945999564860728     
   3.4136887938498677       -6.3116012521251426       -4.3534675736579365     
  -2.1995106258893538       -7.6778615439404501       0.29971043386303076     
   1.9202613733716782       -6.4414251929472304       -1.3651316858314499     
  0.59164053998195598       -8.2732042614888233        3.0102481943556598     
   7.7799826102098049       -4.4944323638453714        2.9022634175235003     
   2.3687811343874645       -8.1822584312344731       -1.5694977638584684     
   9.2936270429445091       -1.1872314024225892      -0.85452912168717499     
 -0.42131003639092879       -8.0815457203894390        3.0761275322124995     
   8.4605045810366413       -4.1822304925359095        1.0470684179999881     
   2.7297033404057802       -6.4868663481821356       -5.0679700738592430     
  -3.6423182669390304       -8.0023015082579114        1.3673514985969291     
  -1.6990748761181003       -8.4646879893323241       0.66391186931889690     
  -1.1927752355153880       -7.4420302019967934        5.2275995834350928     
   3.2248372170793034       -7.4556268168623161       -4.9257453732858831     
   8.9840601791179875      -0.76227364305963285       -1.7236645871480920     
   2.6311270963485147       -5.7009601965837051       -5.6784332508997748     
   2.3571234484893098       -5.9702244811535419       -4.2736123821235941     
   4.0502144312015371       -6.5211470064269790       -1.1837277710057308     
   2.6257097177779283       -7.8090226803363336        4.7283839102775040     
   2.6155543547933857       -8.1215302159273115        1.1196046739026819     
   4.3012791935643353       -4.5202832190052833        2.3324253737648899     
  0.89202405018190389       -8.4944219420958813       0.70902410338090383     
   2.3260084367512746       -7.1478589129170436        2.5183262024743924     
   7.0216404068646554       -2.4578652151258149        1.8651828140351163     
   7.6486311801627282       -2.3097633215058968        4.9167364678417478     
   6.1878138564625162       -3.3684218457388728       -5.7813748341063516     
   2.7718064930850832       -5.9551084802510701       -1.5616831414881667     
   5.9774770275753024       -5.9912244608722443        4.3016297998625888     
  0.50455811161156483       -6.8078919616661944        7.6920112314236122E-002
   2.6937985371202662       -6.9965348214042802       -4.2083937820884092     
   7.6487934337124415       -2.4323103247857336       -5.0709725597608060     
   5.7852270468827482       -6.1497282432904221       -1.7644947162970113     
   3.5721404088464355       -5.8368212045408345       -5.2218006337943343     
  -1.1643123596693714       -7.6603936571927393       0.40254293392648727     
  0.37127537477661493       -5.5332583222495852       -2.3862216569171855     
   5.9054649778917261       -7.2824608944174383        1.4324053728774941     
   8.6940344003632610       -3.2537541749107164       -2.0086489679475208     
   2.1249930777705246       -8.9968538583412379        2.1889844999522139     
  -1.1709550172016467       -6.7579927117973231      -0.99380053267643631     
   4.9672273006375791       -5.0749603270927519       -4.5994627573384772     
   2.7811094559194562       -7.3645792299791921        3.3923951604144005     
   6.2680573763094216       -7.0559966126146509       0.52826542380119623     
  -1.3302964243230611       -6.9107864058433126       -2.2045117063378226     
   6.7035682217022536       -5.3835967582923354        3.9756649128160761     
   4.9783073564165674       -6.7598170593539235       -1.7665009363206465     
   5.1748478322270506       -2.8030504001671495       -7.4421098104661247     
   3.6829517864923909       -4.9862773349776370       -7.1869903087473501     
  0.35764287375082826       -8.3460375919870202       -1.6575662292595970     
  -1.3221323156811402       -9.4049499821795148       0.22267702867907568     
   8.8823493181838966       -2.9866574747872754      -0.14652482772353959     
   5.8849046316885811       -4.0981270683347084        2.9668954547612789     
   4.1311740519329483       -4.0745840399350985       -7.1623739667216810     
   7.1510855397625654       -3.1594242718480459        5.1213796065536519     
 -0.66379996021882570       -8.5242739370440805       0.74446892804834308     
   3.8842244309400953       -7.5607293385492467       0.89367808574999064     
 -0.95878459884343437       -7.3730799091031693        2.2292751783059028     
  -1.6014335333007623       -6.2343436587143319       0.56193630643794190     
   4.5503195436235560       -5.0498915468605130        6.6349075135320268     
   6.7391477791288104       -5.3500658458771619        9.1859011399434282E-002
   3.1287592123376631E-002  -6.2285633426098510       0.86277773772633237     
   1.8309876674956373       -7.0518695219165011       -2.7004399541343287     
   1.6404241822869892       -7.5194254080550182       -1.8302946143748076     
   8.3270995894207385       -4.4768032657461347      -0.67482976156027219     
 -0.27383610305817713       -8.4082426788509181        1.6640596017978351     
   8.1828414697268066       -4.3942151197017285        1.9874611611115212     
 -0.94143235212527276       -7.0061410444959620        4.3002484995137076     
   5.3514312804069686       -5.6802821111552184        3.5860958038472694     
  0.10969222542874800       -7.6994657544999860        2.2597866468471262     
  0.10528368843898710       -6.8354828932572635        1.7530747769211807     
   1.7808453962622197       -6.7616636759884816        3.2627487636034349     
   8.2456765067461042       -3.7822784758634977       -2.7407672277402759     
   1.3605938106583546       -7.8578758921973195       -3.0705784128077291     
   3.4891323416448796       -4.8572672873570397       -4.5097179768182079     
   7.9618255618096656       -5.0312616144908953        1.2430604253560349     
   5.2030487438704656       -6.2836075404667771       -2.6166223864716396     
  0.84943085836919030       -6.2439833030924916       -2.9272360281175027     
   3.8525847106238023       -6.1128959645953493       -6.1676762907068037     
   5.6059789684034200       -6.4363455102519991       0.98870586784573922     
   8.5659002735152860       -1.2884041121687484        3.8891895902070504     
   3.2597283105345758       -4.9219535348706094        7.4427753804512831     
   2.6573661724720914       -5.5098005556740048        3.9403644211624691     
  0.21654413300718006       -9.3038404441389879       -1.9078380862494093     
   4.8421389922228304       -7.1989770817072376       -3.8698573223841577     
 -0.61349949349327293       -8.4459512191610493       -2.1643522197977423     
   5.7544088907711073       -3.3228351890698447       -3.2552363640038866     
   8.3291235618892578       -2.9378254405624160        3.4092348574893370     
   5.8572669107688737       -4.8369323739022940        3.7709175358716540     
  0.62030343333344018       -7.1142362565019770       -3.5161513885038826     
   2.8423410781892211       -8.9775872625442297       -1.1907016647357709     
  -1.7456638176991819       -7.5734309878351009        2.8140067585951485     
   7.4160756036931623       -3.7168122810135631       -2.0613794812769135     
  0.57289264625729119       -7.3704673305697357       -1.6045280486247602     
   1.1451996006365435       -9.3478859720511149       -1.2474507626699951     
   8.0531394667882790       -2.4860253450343275       -4.1578897811389117     
   2.2165988869306390       -7.3529610063888020       -1.0267757652563161     
   1.3647122070836057       -6.5222848639566013      -0.53472585199935108     
 -0.26479284017071314       -8.6198534405607017      -0.87179758485840264     
   6.8819516282980313       -3.4286623185926302       -3.8709935076542323     
   3.0264395170873146       -5.7279482260687313       -3.5660575264413579     
   1.6492163058463019       -8.4433161609016363       -2.2170642979154844     
   4.6048305162669818       -7.8858914089598997        2.6195276492493411     
   1.8047448892383418       -6.3188571191992517       -5.5398447525150099     
   7.2382505647821853       -6.1384951137823718      -0.27848020590347666     
  -1.3958800335668466       -8.6067536004562726        1.6338763458116439     
   6.0182324315002838       -5.3308736205949936        5.0526364384161564     
   4.4216714457213309       -5.1098836810903183      -0.73695139354703099     
[...]
POINT_DATA  500
SCALARS radius float
LOOKUP_TABLE default
  0.50000000000000000     
  0.50000000000000000     
  0.50000000000000000     
  0.50000000000000000     
  0.50000000000000000     
  0.50000000000000000     
  0.50000000000000000     
  0.50000000000000000     
  0.50000000000000000     
  0.50000000000000000     
  0.50000000000000000     
  0.50000000000000000     
  0.50000000000000000     
  0.50000000000000000     
  0.50000000000000000     
  0.50000000000000000     
  0.50000000000000000     
  0.50000000000000000     
  0.50000000000000000     
  0.50000000000000000     
  0.50000000000000000     
  0.50000000000000000     
  0.50000000000000000     
  0.50000000000000000     
  0.50000000000000000     
  0.50000000000000000     
  0.50000000000000000     
  0.50000000000000000     
  0.50000000000000000     
  0.50000000000000000     
  0.50000000000000000     
  0.50000000000000000     
  0.50000000000000000     
  0.50000000000000000     
  0.50000000000000000     
  0.50000000000000000     
  0.50000000000000000     
  0.50000000000000000     
  0.50000000000000000     
  0.50000000000000000     
  0.50000000000000000     
  0.50000000000000000     
  0.50000000000000000     
  0.50000000000000000     
  0.50000000000000000     
  0.50000000000000000     
  0.50000000000000000     
  0.50000000000000000     
  0.50000000000000000     
  0.50000000000000000     
  0.50000000000000000     
  0.50000000000000000     
  0.50000000000000000     
  0.50000000000000000     
  0.50000000000000000     
  0.50000000000000000     
  0.50000000000000000     
  0.50000000000000000     
  0.50000000000000000     
  0.50000000000000000     
  0.50000000000000000     
  0.50000000000000000     
  0.50000000000000000     
  0.50000000000000000     
  0.50000000000000000     
  0.50000000000000000     
  0.50000000000000000     
  0.50000000000000000     
  0.50000000000000000     
  0.50000000000000000     
  0.50000000000000000     
  0.50000000000000000     
  0.50000000000000000     
  0.50000000000000000     
  0.50000000000000000     
  0.50000000000000000     
  0.50000000000000000     
  0.50000000000000000     
  0.50000000000000000     
  0.50000000000000000     
  0.50000000000000000     
  0.50000000000000000     
  0.50000000000000000     
  0.50000000000000000     
  0.50000000000000000     
  0.50000000000000000     
  0.50000000000000000     
  0.50000000000000000     
  0.50000000000000000     
  0.50000000000000000     
  0.50000000000000000     
  0.50000000000000000     
  0.50000000000000000     
  0.50000000000000000     
  0.50000000000000000     
  0.50000000000000000     
  0.50000000000000000     
  0.50000000000000000     
  0.50000000000000000     
  0.50000000000000000     
  0.50000000000000000     
  0.50000000000000000     
  0.50000000000000000     
  0.50000000000000000     
  0.50000000000000000     
  0.50000000000000000     
  0.50000000000000000     
  0.50000000000000000     
  0.50000000000000000     
  0.50000000000000000     
  0.50000000000000000     
  0.50000000000000000     
  0.50000000000000000     
  0.50000000000000000     
  0.50000000000000000     
  0.50000000000000000     
  0.50000000000000000     
  0.50000000000000000     
  0.50000000000000000     
  0.50000000000000000     
  0.50000000000000000     
  0.50000000000000000     
  0.50000000000000000     
  0.50000000000000000     
  0.50000000000000000     
  0.50000000000000000     
  0.50000000000000000     
  0.50000000000000000     
  0.50000000000000000     
  0.50000000000000000     
  0.50000000000000000     
  0.50000000000000000     
  0.50000000000000000     
  0.50000000000000000     
  0.50000000000000000     
  0.50000000000000000     
  0.50000000000000000     
  0.50000000000000000     
  0.50000000000000000     
  0.50000000000000000     
  0.50000000000000000     
  0.50000000000000000     
  0.50000000000000000     
  0.50000000000000000     
  0.50000000000000000     
  0.50000000000000000     
  0.50000000000000000     
  0.50000000000000000     
  0.50000000000000000     
  0.50000000000000000     
  0.50000000000000000     
  0.50000000000000000     
  0.50000000000000000     
  0.50000000000000000     
  0.50000000000000000     
  0.50000000000000000     
  0.50000000000000000     
  0.50000000000000000     
  0.50000000000000000     
  0.50000000000000000     
  0.50000000000000000     
  0.50000000000000000     
  0.50000000000000000     
  0.50000000000000000     
  0.50000000000000000     
  0.50000000000000000     
  0.50000000000000000     
  0.50000000000000000     
  0.50000000000000000     
  0.50000000000000000     
  0.50000000000000000     
  0.50000000000000000     
  0.50000000000000000     
  0.50000000000000000     
  0.50000000000000000     
  0.50000000000000000     
  0.50000000000000000     
  0.50000000000000000     
  0.50000000000000000     
  0.50000000000000000     
  0.50000000000000000     
  0.50000000000000000     
  0.50000000000000000     
  0.50000000000000000     
  0.50000000000000000     
  0.50000000000000000     
  0.50000000000000000     
  0.50000000000000000     
  0.50000000000000000     
  0.50000000000000000     
  0.50000000000000000     
  0.50000000000000000     
  0.50000000000000000     
  0.50000000000000000     
  0.50000000000000000     
  0.50000000000000000     
  0.50000000000000000     
  0.50000000000000000     
  0.50000000000000000     
  0.50000000000000000     
  0.50000000000000000     
  0.50000000000000000     
  0.50000000000000000     
  0.50000000000000000     
  0.50000000000000000     
  0.50000000000000000     
  0.50000000000000000     
  0.50000000000000000     
  0.50000000000000000     
  0.50000000000000000     
  0.50000000000000000     
  0.50000000000000000     
  0.50000000000000000     
  0.50000000000000000     
  0.50000000000000000     
  0.50000000000000000     
  0.50000000000000000     
  0.50000000000000000     
  0.50000000000000000     
  0.50000000000000000     
  0.50000000000000000     
  0.50000000000000000     
  0.50000000000000000     
  0.50000000000000000     
  0.50000000000000000     
  0.50000000000000000     
  0.50000000000000000     
  0.50000000000000000     
  0.50000000000000000     
  0.50000000000000000     
  0.50000000000000000     
  0.50000000000000000     
  0.50000000000000000     
  0.50000000000000000     
  0.50000000000000000     
  0.50000000000000000     
  0.50000000000000000     
  0.50000000000000000     
  0.50000000000000000     
  0.50000000000000000     
  0.50000000000000000     
  0.50000000000000000     
  0.50000000000000000     
  0.50000000000000000     
  0.50000000000000000     
  0.50000000000000000     
  0.50000000000000000     
  0.50000000000000000     
  0.50000000000000000     
  0.50000000000000000     
  0.50000000000000000     
  0.50000000000000000     
  0.50000000000000000     
  0.50000000000000000     
  0.50000000000000000     
  0.50000000000000000     
  0.50000000000000000     
  0.50000000000000000     
  0.50000000000000000     
  0.50000000000000000     
  0.50000000000000000     
  0.50000000000000000     
  0.50000000000000000     
  0.50000000000000000     
  0.50000000000000000     
  0.50000000000000000     
  0.50000000000000000     
  0.50000000000000000     
  0.50000000000000000     
  0.50000000000000000     
  0.50000000000000000     
  0.50000000000000000     
  0.50000000000000000     
  0.50000000000000000     
  0.50000000000000000     
  0.50000000000000000     
  0.50000000000000000     
  0.50000000000000000     
  0.50000000000000000     
  0.50000000000000000     
  0.50000000000000000     
  0.50000000000000000     
  0.50000000000000000     
  0.50000000000000000     
  0.50000000000000000     
  0.50000000000000000     
  0.50000000000000000     
  0.50000000000000000     
  0.50000000000000000     
  0.50000000000000000     
  0.50000000000000000     
  0.50000000000000000     
  0.50000000000000000     
  0.50000000000000000     
  0.50000000000000000     
  0.50000000000000000     
  0.50000000000000000     
  0.50000000000000000     
  0.50000000000000000     
  0.50000000000000000     
  0.50000000000000000     
  0.50000000000000000     
  0.50000000000000000     
  0.50000000000000000     
  0.50000000000000000     
  0.50000000000000000     
  0.50000000000000000     
  0.50000000000000000     
  0.50000000000000000     
  0.50000000000000000     
  0.50000000000000000     
  0.50000000000000000     
  0.50000000000000000     
  0.50000000000000000     
  0.50000000000000000     
  0.50000000000000000     
  0.50000000000000000     
  0.50000000000000000     
  0.50000000000000000     
  0.50000000000000000     
  0.50000000000000000     
  0.50000000000000000     
  0.50000000000000000     
  0.50000000000000000     
  0.50000000000000000     
  0.50000000000000000     
  0.50000000000000000     
  0.50000000000000000     
  0.50000000000000000     
  0.50000000000000000     
  0.50000000000000000     
  0.50000000000000000     
  0.50000000000000000     
  0.50000000000000000     
  0.50000000000000000     
  0.50000000000000000     
  0.50000000000000000     
  0.50000000000000000     
  0.50000000000000000     
  0.50000000000000000     
  0.50000000000000000     
  0.50000000000000000     
  0.50000000000000000     
  0.50000000000000000     
  0.50000000000000000     
  0.50000000000000000     
  0.50000000000000000     
  0.50000000000000000     
  0.50000000000000000     
  0.50000000000000000     
  0.50000000000000000     
  0.50000000000000000     
  0.50000000000000000     
  0.50000000000000000     
  0.50000000000000000     
  0.50000000000000000     
  0.50000000000000000     
  0.50000000000000000     
  0.50000000000000000     
  0.50000000000000000     
  0.50000000000000000     
  0.50000000000000000     
  0.50000000000000000     
  0.50000000000000000     
  0.50000000000000000     
  0.50000000000000000     
  0.50000000000000000     
  0.50000000000000000     
  0.50000000000000000     
  0.50000000000000000     
  0.50000000000000000     
  0.50000000000000000     
  0.50000000000000000     
  0.50000000000000000     
  0.50000000000000000     
  0.50000000000000000     
  0.50000000000000000     
  0.50000000000000000     
  0.50000000000000000     
  0.50000000000000000     
  0.50000000000000000     
  0.50000000000000000     
  0.50000000000000000     
  0.50000000000000000     
  0.50000000000000000     
  0.50000000000000000     
  0.50000000000000000     
  0.50000000000000000     
  0.50000000000000000     
  0.50000000000000000     
  0.50000000000000000     
  0.50000000000000000     
  0.50000000000000000     
  0.50000000000000000     
  0.50000000000000000     
  0.50000000000000000     
  0.50000000000000000     
  0.50000000000000000     
  0.50000000000000000     
  0.50000000000000000     
  0.50000000000000000     
  0.50000000000000000     
  0.50000000000000000     
  0.50000000000000000     
  0.50000000000000000     
  0.50000000000000000     
  0.50000000000000000     
  0.50000000000000000     
  0.50000000000000000     
  0.50000000000000000     
  0.50000000000000000     
  0.50000000000000000     
  0.50000000000000000     
  0.50000000000000000     
  0.50000000000000000     
  0.50000000000000000     
  0.50000000000000000     
  0.50000000000000000     
  0.50000000000000000     
  0.50000000000000000     
  0.50000000000000000     
  0.50000000000000000     
  0.50000000000000000     
  0.50000000000000000     
  0.50000000000000000     
  0.50000000000000000     
  0.50000000000000000     
  0.50000000000000000     
  0.50000000000000000     
  0.50000000000000000     
  0.50000000000000000     
  0.50000000000000000     
  0.50000000000000000     
  0.50000000000000000     
  0.50000000000000000     
  0.50000000000000000     
  0.50000000000000000     
  0.50000000000000000     
  0.50000000000000000     
  0.50000000000000000     
  0.50000000000000000     
  0.50000000000000000     
  0.50000000000000000     
  0.50000000000000000     
  0.50000000000000000     
  0.50000000000000000     
  0.50000000000000000     
  0.50000000000000000     
  0.50000000000000000     
  0.50000000000000000     
  0.50000000000000000     
  0.50000000000000000     
  0.50000000000000000     
  0.50000000000000000     
  0.50000000000000000     
  0.50000000000000000     
  0.50000000000000000     
  0.50000000000000000     
  0.50000000000000000     
  0.50000000000000000     
  0.50000000000000000     
  0.50000000000000000     
  0.50000000000000000     
  0.50000000000000000     
  0.50000000000000000     
  0.50000000000000000     
  0.50000000000000000     
  0.50000000000000000     
  0.50000000000000000     
  0.50000000000000000     
  0.50000000000000000     
  0.50000000000000000     
  0.50000000000000000     
  0.50000000000000000     
  0.50000000000000000     
  0.50000000000000000     
  0.50000000000000000     
  0.50000000000000000     
  0.50000000000000000     
  0.50000000000000000     
  0.50000000000000000     
  0.50000000000000000     
  0.50000000000000000     
  0.50000000000000000     
  0.50000000000000000     
  0.50000000000000000     
  0.50000000000000000     
  0.50000000000000000     
  0.50000000000000000     
  0.50000000000000000     
  0.50000000000000000     
  0.50000000000000000     
  0.50000000000000000     
  0.50000000000000000     
  0.50000000000000000     
  0.50000000000000000     
  0.50000000000000000     
  0.50000000000000000     
  0.50000000000000000     
  0.50000000000000000     
