# vtk DataFile Version 5.1
Data.vtk
ASCII
DATASET UNSTRUCTURED_GRID
 
POINTS 500 float
   6.9028159849816371       -5.6184565458799494        3.3223367922816225     
   6.2160479323894071       -3.7286257306330053       -2.6312673523190089     
  -1.7748179462305511       -8.8979819627982728       -2.8148559315993302     
   5.2696015055990824       -6.7605977783103901       -1.1585826857437953     
  -1.9301001106292304       -7.8973026673276934       -2.7408114599322659     
   2.0116795561758840       -6.7314905054357430       -2.4714285772089633     
   2.6079451319982820       -7.9305173424247881        4.5334510279552873     
   1.1530001035745379       -7.6191001772100000       0.79377928227505867     
   4.2914548567588353       -8.4689146405390492       0.33315184287337224     
   6.1570350995757446       -6.7054808567535105       -2.5868573750493997     
   2.2907424961882459       -6.6322656783797909       -4.9332145515685975     
   5.1810403714983702       -5.3565389503209957       -1.5137462621976085     
   4.0187083249069397       -6.7874744044082984        3.2496712364725662     
   5.2343826915895200       -7.7477641194205171       -1.6738755860619137     
   7.1664249106064632       -4.1817004596186793        1.5401823794864242     
   9.1675436132567114       -1.6089871023603397       -1.4683869343200115     
   2.5422079515994329       -8.9903796531358680       -1.7193827406603428     
  0.93114789624602257       -6.6046901422227728       -2.2033789964101386E-003
   1.2555318952553001       -8.7119966307981027        3.5736983116513632     
   6.5312873545997192       -4.4759809638625452       -3.2167729367363078     
   1.3426673593603098       -7.4578045594280367       -1.0220891491905295     
   7.0393518449400414       -6.2884864502145001      -0.86937662530658144     
   4.2667678250604988       -5.4090159673691875        5.1138811978672800     
  -1.1546050576471263       -7.3791910322366947        5.8694247040187948     
 -0.23431820555066973       -8.3777650771270711       -1.7721098664465595     
  -1.1376903115985497       -9.3873978281050192      -0.91448373924527471     
   1.8425590592961487       -7.0289304333692781        2.7450070901745529     
  -2.6125850080803548       -8.0798835672057070      -0.27200656155798880     
   8.1430207939703294       -4.2388001573154801       -2.4247405982885271     
   9.1946936527962091       -1.0745637347984980        2.0499123408549105     
   2.5714815838648453       -6.3677953604651272      -0.37122189959862928     
   6.2423186310798773       -6.3825481552219392        3.2475787281862840     
   4.8832135845505276       -3.9363256615048479       -7.1350516602721008     
   1.1784794150136431       -9.4196649739749887      -0.36211506065613763     
   4.6921218272382230       -7.5699207641512354       -3.3055368856613865     
   8.9181540933494130       -1.7414464310012021       -2.5227169581019693     
   5.7009326492798786       -5.2529805474747597      -0.66598101566167445     
   5.5404625048006073       -4.7894984569522761        5.9877808923194280     
   2.1216970637804741E-002  -8.2726509261311829        1.9540797050273695     
   1.9455129601076038       -8.9095824360009033        2.6614747108356518     
 -0.87025733699954511       -7.7699327528357518       0.58283323276505006     
   3.5654357078632586       -6.0272202451332948        2.6750448172747530     
  0.27316986696304918       -9.4361864677356397        1.0649336996609842     
 -0.61223271455324146       -8.6443128880280433        3.8871066375457222     
   2.4041840505484746       -7.8790783915371705       -4.7110012751135706     
   6.0452803455188304       -7.1361361622017894       -1.6673798451256066     
   7.6835559863919576      -0.88126722479974628        4.8359049049304943     
   8.9868497777578948       -2.9975704116699524       -5.6763507735134153E-002
   5.3138174813608643       -6.0670144595537980       -2.9551789357166145     
   1.8929372911113558       -8.7670627445788618       -3.0148844685063230     
   3.6641231919784070       -7.7935544998605453       -1.2156520721646082     
   7.7308942913256642       -4.3585134512536072       -3.3785845498024476     
  0.70471968362257986       -7.5713708967064903      -0.12147819229577238     
   3.9172099325564513       -8.6319284269503544      -0.62920249317567689     
   4.4366513274319992       -3.3830064742368244        6.2241021437969426     
  -2.2965860047549849       -8.4833399520896258       -3.5640370541539013     
   1.0372878037931239       -6.5340214523744464        4.3896385345809970     
   7.5735589888174459       -2.1580321023039670       -2.3285098110738183     
   8.4577037356680016       -4.0696699480870500       -1.3887937948688094     
   4.0065919603832061       -6.3227902953285566        4.1362993692284054     
  -2.2786751031651602       -8.1320728856572515        1.5653187315834329     
   5.4654458031451556       -4.9252993081042442       -2.3700723716584160     
   7.4879763338968230E-002  -6.9585457163506979        6.4214960155056700     
   2.7056133527901576       -8.1075475645238324       -1.2786056846816545     
   5.5282029295329842       -6.9042750636770176       -3.4646218434821896     
   4.0335638384467396       -7.1526635111470656       -4.7742618598941657     
  0.20789175339317179       -8.1613540409266321       -2.9710468217987596     
   2.7121507315910951       -6.0605006122343053       0.60008357518813638     
  -3.4501669288087657       -8.7880872127092271      -0.36384300163710909     
   6.1379219833305516       -5.3654484375389186        2.5056965860985110     
   4.8156090842775692       -7.0560968117329903       -4.1546009914816304     
   1.2176784757807375       -6.9986992575091733        6.2927006934224083     
   1.1243906533353809       -6.6396793433505739       0.99679428466112097     
  0.79567542200642061       -8.4762591457014107        1.1687767972484238     
   7.9555774723112211       -2.6610858074837371       0.72863310919704338     
   8.2089888682768333       -4.7272144493169330      -0.67746341900725315     
   3.7419990145361122       -7.1395618798387286        5.0273168943888287     
   4.2500642027782076       -7.5085553430792684       0.67315620445143987     
   6.3705442126606782       -7.0087830348820459      -0.68579676117222665     
   4.6709362367468774       -5.5318938992444782       -2.4056900011059299     
   3.5816894445075693       -6.5482404572148045       -1.5944567922295203     
 -0.98837642408491266       -8.4183739668689235       -1.1131134570549270     
 -0.20177257036902280       -7.4210052972777945        2.6055633675764933     
  -2.0611963496205323       -7.9636774127011849        2.5268618115365400     
   6.4699559658629626       -3.3651272602267222        4.4804989932095109     
   5.6145655136694046       -5.6097426195888040        3.3407731070447251     
   1.5433305277748439       -7.4140994431301213        1.7242686285199602     
   9.2199750421643607      -0.96773887265045511      -0.70230445180462475     
   4.6368361263035913       -4.9531027067933611        3.4911569173992745     
  -3.0529743736676518       -8.4627061932426866       -2.8038114706938297     
   2.6512390629855216       -7.4874638265097424       -2.9742732730423400     
   3.8692608642350117       -8.1184103651568709       -3.0515238396763560     
  -2.8017402501193356       -8.0179540409311123       0.71563463816222550     
   4.7840244997693393       -6.6750771470126020       -2.2271802587092195     
   6.7331201503746403       -6.4256404682455841       -1.8162364904299089     
   8.3530157992943135       -2.5259641275058549       -3.7393020941092572     
   2.7588601247080566       -8.0454416537196263        1.3996814643254210     
  -1.4268551759641708       -8.8127912741379681        3.2157506646856793     
   4.6900558644711605       -7.4898649731858988        3.4865846309038666     
   7.5241086281721925       -4.8955588407834485        3.0202378512733743     
   3.1123582570327009       -6.1266596827211082       -4.5142371182437397     
   2.8098065927895681       -5.1703198971385858       -4.8737955636595478     
   2.8879303109858241       -7.1206830280061739       -4.2072113868264145     
   2.9945922306314809       -8.9770127430077835      -0.82762817393292976     
  -1.1266647046592051       -7.8862763996116385        3.4501523600092723     
   6.2640034796998947       -4.8470095993770155        3.3514135928565056     
   8.6898528864467970       -1.5986624078773912       -3.4895014990170234     
   1.8472196042726248       -6.4728754684947001       -1.0636261087812693     
   2.1871480198727475       -6.1796339455726947        4.5407367505493639     
   6.8241620013198885       -5.0273890760621400      -0.30325907475548214     
   2.8206169295820498       -7.1929696104945293       -1.6660952960651756     
   2.4576183514157708       -6.6080170842814088       -3.4097920092981338     
  0.29485489602649739       -9.1751214097473301       -2.4453913710567017     
   4.1128829731118222       -6.4733139789428735      -0.73174074939044664     
   9.1803589632874871       -2.2718292337620913      -0.71781969239868237     
  -1.5338887566041155       -8.4494347514379253       -1.9506726809479260     
  0.89628268521506360       -8.8985365593083614       -3.2024505208307925     
   8.6072571518613774       -3.4041998402115001       -2.1203102811866210     
   1.0423818514311638       -7.6048237573197595       -3.6703844313428746     
   2.6309211134774273       -6.0564133597624199        5.4366277664065619     
   6.2979389021750283       -5.6740593560878354       -4.2884419399330458     
 -0.99609309833920279       -6.0571885932405181       0.57740558473770986     
   3.4470831455924804       -5.6407436716084076        1.5740971691389585     
   2.3630630738902525       -6.0639893610745803        6.9205525975718221     
   2.1368398550106309       -9.2065877910816827       0.88691029459131576     
[...]
POINT_DATA  500
SCALARS radius float
LOOKUP_TABLE default
  0.50000000000000000     
  0.50000000000000000     
  0.50000000000000000     
  0.50000000000000000     
  0.50000000000000000     
  0.50000000000000000     
  0.50000000000000000     
  0.50000000000000000     
  0.50000000000000000     
  0.50000000000000000     
  0.50000000000000000     
  0.50000000000000000     
  0.50000000000000000     
  0.50000000000000000     
  0.50000000000000000     
  0.50000000000000000     
  0.50000000000000000     
  0.50000000000000000     
  0.50000000000000000     
  0.50000000000000000     
  0.50000000000000000     
  0.50000000000000000     
  0.50000000000000000     
  0.50000000000000000     
  0.50000000000000000     
  0.50000000000000000     
  0.50000000000000000     
  0.50000000000000000     
  0.50000000000000000     
  0.50000000000000000     
  0.50000000000000000     
  0.50000000000000000     
  0.50000000000000000     
  0.50000000000000000     
  0.50000000000000000     
  0.50000000000000000     
  0.50000000000000000     
  0.50000000000000000     
  0.50000000000000000     
  0.50000000000000000     
  0.50000000000000000     
  0.50000000000000000     
  0.50000000000000000     
  0.50000000000000000     
  0.50000000000000000     
  0.50000000000000000     
  0.50000000000000000     
  0.50000000000000000     
  0.50000000000000000     
  0.50000000000000000     
  0.50000000000000000     
  0.50000000000000000     
  0.50000000000000000     
  0.50000000000000000     
  0.50000000000000000     
  0.50000000000000000     
  0.50000000000000000     
  0.50000000000000000     
  0.50000000000000000     
  0.50000000000000000     
  0.50000000000000000     
  0.50000000000000000     
  0.50000000000000000     
  0.50000000000000000     
  0.50000000000000000     
  0.50000000000000000     
  0.50000000000000000     
  0.50000000000000000     
  0.50000000000000000     
  0.50000000000000000     
  0.50000000000000000     
  0.50000000000000000     
  0.50000000000000000     
  0.50000000000000000     
  0.50000000000000000     
  0.50000000000000000     
  0.50000000000000000     
  0.50000000000000000     
  0.50000000000000000     
  0.50000000000000000     
  0.50000000000000000     
  0.50000000000000000     
  0.50000000000000000     
  0.50000000000000000     
  0.50000000000000000     
  0.50000000000000000     
  0.50000000000000000     
  0.50000000000000000     
  0.50000000000000000     
  0.50000000000000000     
  0.50000000000000000     
  0.50000000000000000     
  0.50000000000000000     
  0.50000000000000000     
  0.50000000000000000     
  0.50000000000000000     
  0.50000000000000000     
  0.50000000000000000     
  0.50000000000000000     
  0.50000000000000000     
  0.50000000000000000     
  0.50000000000000000     
  0.50000000000000000     
  0.50000000000000000     
  0.50000000000000000     
  0.50000000000000000     
  0.50000000000000000     
  0.50000000000000000     
  0.50000000000000000     
  0.50000000000000000     
  0.50000000000000000     
  0.50000000000000000     
  0.50000000000000000     
  0.50000000000000000     
  0.50000000000000000     
  0.50000000000000000     
  0.50000000000000000     
  0.50000000000000000     
  0.50000000000000000     
  0.50000000000000000     
  0.50000000000000000     
  0.50000000000000000     
  0.50000000000000000     
  0.50000000000000000     
  0.50000000000000000     
  0.50000000000000000     
  0.50000000000000000     
  0.50000000000000000     
  0.50000000000000000     
  0.50000000000000000     
  0.50000000000000000     
  0.50000000000000000     
  0.50000000000000000     
  0.50000000000000000     
  0.50000000000000000     
  0.50000000000000000     
  0.50000000000000000     
  0.50000000000000000     
  0.50000000000000000     
  0.50000000000000000     
  0.50000000000000000     
  0.50000000000000000     
  0.50000000000000000     
  0.50000000000000000     
  0.50000000000000000     
  0.50000000000000000     
  0.50000000000000000     
  0.50000000000000000     
  0.50000000000000000     
  0.50000000000000000     
  0.50000000000000000     
  0.50000000000000000     
  0.50000000000000000     
  0.50000000000000000     
  0.50000000000000000     
  0.50000000000000000     
  0.50000000000000000     
  0.50000000000000000     
  0.50000000000000000     
  0.50000000000000000     
  0.50000000000000000     
  0.50000000000000000     
  0.50000000000000000     
  0.50000000000000000     
  0.50000000000000000     
  0.50000000000000000     
  0.50000000000000000     
  0.50000000000000000     
  0.50000000000000000     
  0.50000000000000000     
  0.50000000000000000     
  0.50000000000000000     
  0.50000000000000000     
  0.50000000000000000     
  0.50000000000000000     
  0.50000000000000000     
  0.50000000000000000     
  0.50000000000000000     
  0.50000000000000000     
  0.50000000000000000     
  0.50000000000000000     
  0.50000000000000000     
  0.50000000000000000     
  0.50000000000000000     
  0.50000000000000000     
  0.50000000000000000     
  0.50000000000000000     
  0.50000000000000000     
  0.50000000000000000     
  0.50000000000000000     
  0.50000000000000000     
  0.50000000000000000     
  0.50000000000000000     
  0.50000000000000000     
  0.50000000000000000     
  0.50000000000000000     
  0.50000000000000000     
  0.50000000000000000     
  0.50000000000000000     
  0.50000000000000000     
  0.50000000000000000     
  0.50000000000000000     
  0.50000000000000000     
  0.50000000000000000     
  0.50000000000000000     
  0.50000000000000000     
  0.50000000000000000     
  0.50000000000000000     
  0.50000000000000000     
  0.50000000000000000     
  0.50000000000000000     
  0.50000000000000000     
  0.50000000000000000     
  0.50000000000000000     
  0.50000000000000000     
  0.50000000000000000     
  0.50000000000000000     
  0.50000000000000000     
  0.50000000000000000     
  0.50000000000000000     
  0.50000000000000000     
  0.50000000000000000     
  0.50000000000000000     
  0.50000000000000000     
  0.50000000000000000     
  0.50000000000000000     
  0.50000000000000000     
  0.50000000000000000     
  0.50000000000000000     
  0.50000000000000000     
  0.50000000000000000     
  0.50000000000000000     
  0.50000000000000000     
  0.50000000000000000     
  0.50000000000000000     
  0.50000000000000000     
  0.50000000000000000     
  0.50000000000000000     
  0.50000000000000000     
  0.50000000000000000     
  0.50000000000000000     
  0.50000000000000000     
  0.50000000000000000     
  0.50000000000000000     
  0.50000000000000000     
  0.50000000000000000     
  0.50000000000000000     
  0.50000000000000000     
  0.50000000000000000     
  0.50000000000000000     
  0.50000000000000000     
  0.50000000000000000     
  0.50000000000000000     
  0.50000000000000000     
  0.50000000000000000     
  0.50000000000000000     
  0.50000000000000000     
  0.50000000000000000     
  0.50000000000000000     
  0.50000000000000000     
  0.50000000000000000     
  0.50000000000000000     
  0.50000000000000000     
  0.50000000000000000     
  0.50000000000000000     
  0.50000000000000000     
  0.50000000000000000     
  0.50000000000000000     
  0.50000000000000000     
  0.50000000000000000     
  0.50000000000000000     
  0.50000000000000000     
  0.50000000000000000     
  0.50000000000000000     
  0.50000000000000000     
  0.50000000000000000     
  0.50000000000000000     
  0.50000000000000000     
  0.50000000000000000     
  0.50000000000000000     
  0.50000000000000000     
  0.50000000000000000     
  0.50000000000000000     
  0.50000000000000000     
  0.50000000000000000     
  0.50000000000000000     
  0.50000000000000000     
  0.50000000000000000     
  0.50000000000000000     
  0.50000000000000000     
  0.50000000000000000     
  0.50000000000000000     
  0.50000000000000000     
  0.50000000000000000     
  0.50000000000000000     
  0.50000000000000000     
  0.50000000000000000     
  0.50000000000000000     
  0.50000000000000000     
  0.50000000000000000     
  0.50000000000000000     
  0.50000000000000000     
  0.50000000000000000     
  0.50000000000000000     
  0.50000000000000000     
  0.50000000000000000     
  0.50000000000000000     
  0.50000000000000000     
  0.50000000000000000     
  0.50000000000000000     
  0.50000000000000000     
  0.50000000000000000     
  0.50000000000000000     
  0.50000000000000000     
  0.50000000000000000     
  0.50000000000000000     
  0.50000000000000000     
  0.50000000000000000     
  0.50000000000000000     
  0.50000000000000000     
  0.50000000000000000     
  0.50000000000000000     
  0.50000000000000000     
  0.50000000000000000     
  0.50000000000000000     
  0.50000000000000000     
  0.50000000000000000     
  0.50000000000000000     
  0.50000000000000000     
  0.50000000000000000     
  0.50000000000000000     
  0.50000000000000000     
  0.50000000000000000     
  0.50000000000000000     
  0.50000000000000000     
  0.50000000000000000     
  0.50000000000000000     
  0.50000000000000000     
  0.50000000000000000     
  0.50000000000000000     
  0.50000000000000000     
  0.50000000000000000     
  0.50000000000000000     
  0.50000000000000000     
  0.50000000000000000     
  0.50000000000000000     
  0.50000000000000000     
  0.50000000000000000     
  0.50000000000000000     
  0.50000000000000000     
  0.50000000000000000     
  0.50000000000000000     
  0.50000000000000000     
  0.50000000000000000     
  0.50000000000000000     
  0.50000000000000000     
  0.50000000000000000     
  0.50000000000000000     
  0.50000000000000000     
  0.50000000000000000     
  0.50000000000000000     
  0.50000000000000000     
  0.50000000000000000     
  0.50000000000000000     
  0.50000000000000000     
  0.50000000000000000     
  0.50000000000000000     
  0.50000000000000000     
  0.50000000000000000     
  0.50000000000000000     
  0.50000000000000000     
  0.50000000000000000     
  0.50000000000000000     
  0.50000000000000000     
  0.50000000000000000     
  0.50000000000000000     
  0.50000000000000000     
  0.50000000000000000     
  0.50000000000000000     
  0.50000000000000000     
  0.50000000000000000     
  0.50000000000000000     
  0.50000000000000000     
  0.50000000000000000     
  0.50000000000000000     
  0.50000000000000000     
  0.50000000000000000     
  0.50000000000000000     
  0.50000000000000000     
  0.50000000000000000     
  0.50000000000000000     
  0.50000000000000000     
  0.50000000000000000     
  0.50000000000000000     
  0.50000000000000000     
  0.50000000000000000     
  0.50000000000000000     
  0.50000000000000000     
  0.50000000000000000     
  0.50000000000000000     
  0.50000000000000000     
  0.50000000000000000     
  0.50000000000000000     
  0.50000000000000000     
  0.50000000000000000     
  0.50000000000000000     
  0.50000000000000000     
  0.50000000000000000     
  0.50000000000000000     
  0.50000000000000000     
  0.50000000000000000     
  0.50000000000000000     
  0.50000000000000000     
  0.50000000000000000     
  0.50000000000000000     
  0.50000000000000000     
  0.50000000000000000     
  0.50000000000000000     
  0.50000000000000000     
  0.50000000000000000     
  0.50000000000000000     
  0.50000000000000000     
  0.50000000000000000     
  0.50000000000000000     
  0.50000000000000000     
  0.50000000000000000     
  0.50000000000000000     
  0.50000000000000000     
  0.50000000000000000     
  0.50000000000000000     
  0.50000000000000000     
  0.50000000000000000     
  0.50000000000000000     
  0.50000000000000000     
  0.50000000000000000     
  0.50000000000000000     
  0.50000000000000000     
  0.50000000000000000     
  0.50000000000000000     
  0.50000000000000000     
  0.50000000000000000     
  0.50000000000000000     
  0.50000000000000000     
  0.50000000000000000     
  0.50000000000000000     
  0.50000000000000000     
  0.50000000000000000     
  0.50000000000000000     
  0.50000000000000000     
  0.50000000000000000     
  0.50000000000000000     
  0.50000000000000000     
  0.50000000000000000     
  0.50000000000000000     
  0.50000000000000000     
  0.50000000000000000     
  0.50000000000000000     
  0.50000000000000000     
  0.50000000000000000     
  0.50000000000000000     
  0.50000000000000000     
  0.50000000000000000     
  0.50000000000000000     
  0.50000000000000000     
  0.50000000000000000     
  0.50000000000000000     
  0.50000000000000000     
  0.50000000000000000     
  0.50000000000000000     
  0.50000000000000000     
  0.50000000000000000     
  0.50000000000000000     
  0.50000000000000000     
  0.50000000000000000     
  0.50000000000000000     
  0.50000000000000000     
  0.50000000000000000     
  0.50000000000000000     
  0.50000000000000000     
  0.50000000000000000     
  0.50000000000000000     
  0.50000000000000000     
  0.50000000000000000     
  0.50000000000000000     
  0.50000000000000000     
  0.50000000000000000     
  0.50000000000000000     
  0.50000000000000000     
  0.50000000000000000     
  0.50000000000000000     
  0.50000000000000000     
  0.50000000000000000     
  0.50000000000000000     
  0.50000000000000000     
  0.50000000000000000     
  0.50000000000000000     
  0.50000000000000000     
  0.50000000000000000     
  0.50000000000000000     
  0.50000000000000000     
