# vtk DataFile Version 5.1
Data.vtk
ASCII
DATASET UNSTRUCTURED_GRID
 
POINTS 500 float
   9.2028656075874427       -1.8520079642721139        1.3980614302942886     
   5.4330904622823795       -6.5990586071294155       -1.0745672167385512     
   3.7093635666664864       -5.8354426220288627       -3.1167733081632112     
  0.31743047311637729       -8.5297385532135443      -0.22934896456367887     
   7.7299261786052407       -5.2530977013578299       -1.7026113417242701     
   5.1433875865757024       -5.3378584179649424       -1.8991070080941288     
   5.7769188963858129       -4.8971562955640495        3.7917785589896345     
   2.5355869290714574       -6.9717260469240214        1.2562795817949575     
   7.1422281834715919       -4.7501315290221298       -4.0488456191098274     
   4.3670223278493934       -4.3494034021163381       -3.0105257812826625     
   7.1705206748119803       -5.7107919229583235       -2.3962807467954139     
  -2.8271586689021402       -8.8706431649500761       -1.8862525614255850     
   3.5276145640320502       -6.7782952615971901        4.0520729612238071     
   7.0398289166348151       -3.9021199294679048       -2.8547726351153875     
   3.5179700710340085       -7.8020125815737487       0.56427614534952419     
  0.11894327746488666       -6.5212653546931794       -2.0083805606543907     
   5.8301487092129456       -6.5922859585604012       -3.5748839739626859     
   6.5819593307693287       -6.7756758269153714       -1.0085034835820408     
   8.0756008342806620       -4.2683575329604881        2.5460818870953132     
   2.8286196251536975       -8.7901604421290536       -2.2303202137103333     
   2.1646541870142357       -7.3490929251663193      -0.54647425624482338     
   2.0531458343155329       -6.0874370364790886       -2.0240673403477358     
   2.0397263451232313       -5.7082827070181406        7.2595978681302622     
   2.4047927251993793       -7.2327928381771835        5.6692228404044975     
   5.6307179354215915       -4.5761665508686402       -4.5866625169192661     
   4.4932343790332476       -4.7476548668952061       -1.2513285918171411     
   5.0724127829374366       -5.3835481250855146        1.3701377051575943     
   2.5322687230814434       -6.3230305573728849       -1.1205614759104363     
   6.8048816219528359       -3.6485859280943918       -5.5345465711222239     
 -0.27601567702327034       -7.2695440724794960        3.1509869384109752     
 -0.43497648607741374       -9.3590907600471809       -1.5678181409818681     
   8.5576251245902366       -3.4596464168002625        2.2014432566537998     
   3.5395662432531290       -5.6475490052362272       -6.7695690315383645     
   7.5737372359170108       -3.8792292837805640       -1.1065831719605803     
   9.2625339880934501      -0.64017301182281205       -1.9194641585309073     
  0.32462230258599106       -6.4240880383250101       -2.9824509557997012     
  0.27472200142571007       -9.4802667978060651      -0.54028792468479647     
   6.0267908845637068       -5.2279959535312797        5.1551722832530631     
   4.3027842838092258       -5.5961963878466374        5.0901898413090070     
   8.2403010135778079       -3.4928054286605370        3.1665570018836671     
   9.1449489577253846       -2.3650160618759264       0.53547553973861373     
   6.0735549786675218       -6.9806736556356155        1.9535577207396098     
   8.8773880363290587      -0.22712420387532695        2.4888173910521751     
   4.0316525367809817       -7.7983402922201552        3.6306813861562777     
   4.4354289753336946       -6.5693058794008579       -5.2241707858570932     
   7.6195732190593999       -1.6856638698854900       -4.3982463955389104     
 -0.38195464304679688       -6.9968787426703383        4.9926722337932272     
 -0.89468112548048195       -6.7217468020260620       -2.0390349028975874     
   3.0500588421313970       -7.2310778076403723       -3.3046196091325606     
   6.3472766251773285       -3.8314110110652129       -2.1089920091571548     
  -1.1198893468187423       -7.6655473866526842       -2.3941730568789321     
   7.4695822968035728       -3.0508488030730319       -4.9568943878461074     
   3.2231556959950280       -6.7870358544864535       0.14388250805806729     
   3.4720113656121039       -5.6427937126096674       -1.0646227931595149     
  0.47847103361031634       -6.6738704279947143        6.6141929409965368     
   3.6536197151958070       -8.3711317397991252       -2.6110492145559330     
   8.0168297069339420       -2.6377423510599725       0.40322290368920632     
   2.1185406794112902       -6.3692426473973232       -5.3846608239490257     
  0.37718054500847786       -7.3168881497400848       -3.4314137937721667     
   5.0739874224167343       -6.2200421212444947        2.9954644438352585     
   4.2833490412476394       -6.0491002936207705        1.1981517427084973     
  -2.0638337140984699       -8.4381354078837969       -2.3690953108736683     
   2.4848481138446190       -6.3436579291281259        6.6206946507610134     
  0.51444407987399521       -7.1013593562775608       -1.2899459648633005     
   5.5453740707854919       -6.2454307308421058       -4.5270660621540495     
   5.6211071220347852       -5.0313423687900807       -5.6746014150680972     
   5.2847899393000208       -5.3792192117962401       -4.1007184273831747     
   4.3127569414098748       -8.4629435081411515       -1.9319473379235245E-003
   5.2002144778301789       -3.9717754163202681       -1.1068176075778189     
   3.2710079667795262       -7.5243360336650182        2.0029562896940498     
   5.0805653517594020       -7.2439279022019418       -3.4586977606754186     
   3.3173720509947184       -4.3258953918602163        6.9279390974067221     
   5.5750053482960507       -7.5738771815625592        1.3196398875622264     
   2.2574900222120839       -6.6130905112958809        3.1290723979959942     
  0.13785664967369571       -6.3265918197121032        2.9605655630377332     
   2.4386259529901730       -5.6739099397902271       -2.8713811452621640     
   3.8729478110509183       -7.0464244251791852        5.0589831104938776     
  -3.8810397484891235E-002  -7.7352207712670387       0.99807722579894631     
   4.0366956320419556       -5.4774398190556575      -0.25549473798001715     
  0.42724573495706736       -9.2548207993473302       -2.1013688526589300     
   9.3321751062537039       -1.2695955761229960       0.59251720431360744     
   9.3303036154339019       -1.2848907812994885       -1.1580660961816984     
   4.0434811177992653       -5.8346275722611844        2.8419168618337358     
   7.5310603511173664       -2.8258364527941953        1.2647464685527603     
 -0.80242887256338535       -7.9872634864201162        5.0489623340107457     
   4.4401234965197620       -7.0309021740315316        2.2373708419661207     
   2.6775592370234214       -6.7294206633335234        2.2199761497566088     
  -1.4770374950870919       -7.3697131836854393       -1.5076277590429690     
  0.85718539188721665       -8.1945903405422360        4.7218328797961258     
   7.5147070903803428       -3.5369710754456873       -2.0524927202583862     
   1.6050990121703843       -7.1539337189094541       -4.5749794886486592     
   8.4082105205790700       -3.5389726844225855       -2.5034135920076870     
  0.66055535744310412       -6.8708633037302373      -0.31908971398087110     
  0.36247728243562727       -7.9559998734302999       -1.8599078027966829     
   3.1657258543835614       -4.9789260533497064       -2.6388801796607582     
   5.5436510199805307       -3.5888481182017848       -6.6110225455134222     
 -0.92046045800418408       -8.2610167931671796        2.0963562051511704     
   9.1109091319094606      -0.42007959959338959        1.0735390332304773     
   8.8405027719190059       -1.7587805502645359        2.3802136292564708     
   5.3741151252696300       -3.8150490395851921        5.4433918046717986     
   4.4387870835883945       -8.1437450782113903       -1.9846246551782920     
 -0.39437725470965107       -9.1118658448791141       -2.6598679493425581     
   4.0962111536387509       -6.0495025968572991       -4.4360239659950764     
   8.9254867057897975       -3.1648976005383211      -0.75476475552020406     
   5.3698236869811096       -4.6862638474387808        2.8982078748283531     
   4.8849126444289244       -6.8559040231606962        1.2251743234627501     
   3.2596475132746203       -4.7279912838614448       -7.5021544865492364     
   1.9782212769872560       -8.3266319564184350       -1.3014646983845026     
   2.3417630345904370       -9.1828455051823727       0.66454000316986139     
   2.0290253072323954       -8.3096444651431067      -0.30281807850741632     
   5.2584310725127770       -5.3524157018145511      -0.90579010131923787     
   5.5332661433843953       -4.4138405516403365       -1.9398943436787464     
   4.1941649567712016       -7.5883972068975609       -3.8647727902885043     
   7.1906736864600695       -6.0543405955595659       -1.3600983256761929     
  -8.5258043613623963E-002  -6.8374308739655385       0.38349823287313939     
   8.1427290045131411       -4.4191921128504372       -2.0975980522051918     
   4.7963420962523662       -6.9401326728594652       -4.3680606740376611     
 -0.36491056236404795       -7.3387566578044909       -4.4653496166709186     
   3.5204836087081786       -5.3089685143311574       -4.8186592648660058     
   6.8861181584174149       -4.9143464425366963       0.29156087355819665     
   8.7313838775962314      -0.55718395362722606       -3.6980842473693190     
   4.9954105558400492       -8.0537950897817669       0.65743425014370871     
  -2.0246422087789502       -8.9365464352557602        2.4818492610883252     
   6.3673026069803678       -4.1138936317713917        3.9860559034588392     
   1.6443797051204341       -6.1784578925652367        2.1632943026230440     
[...]
POINT_DATA  500
SCALARS radius float
LOOKUP_TABLE default
  0.50000000000000000     
  0.50000000000000000     
  0.50000000000000000     
  0.50000000000000000     
  0.50000000000000000     
  0.50000000000000000     
  0.50000000000000000     
  0.50000000000000000     
  0.50000000000000000     
  0.50000000000000000     
  0.50000000000000000     
  0.50000000000000000     
  0.50000000000000000     
  0.50000000000000000     
  0.50000000000000000     
  0.50000000000000000     
  0.50000000000000000     
  0.50000000000000000     
  0.50000000000000000     
  0.50000000000000000     
  0.50000000000000000     
  0.50000000000000000     
  0.50000000000000000     
  0.50000000000000000     
  0.50000000000000000     
  0.50000000000000000     
  0.50000000000000000     
  0.50000000000000000     
  0.50000000000000000     
  0.50000000000000000     
  0.50000000000000000     
  0.50000000000000000     
  0.50000000000000000     
  0.50000000000000000     
  0.50000000000000000     
  0.50000000000000000     
  0.50000000000000000     
  0.50000000000000000     
  0.50000000000000000     
  0.50000000000000000     
  0.50000000000000000     
  0.50000000000000000     
  0.50000000000000000     
  0.50000000000000000     
  0.50000000000000000     
  0.50000000000000000     
  0.50000000000000000     
  0.50000000000000000     
  0.50000000000000000     
  0.50000000000000000     
  0.50000000000000000     
  0.50000000000000000     
  0.50000000000000000     
  0.50000000000000000     
  0.50000000000000000     
  0.50000000000000000     
  0.50000000000000000     
  0.50000000000000000     
  0.50000000000000000     
  0.50000000000000000     
  0.50000000000000000     
  0.50000000000000000     
  0.50000000000000000     
  0.50000000000000000     
  0.50000000000000000     
  0.50000000000000000     
  0.50000000000000000     
  0.50000000000000000     
  0.50000000000000000     
  0.50000000000000000     
  0.50000000000000000     
  0.50000000000000000     
  0.50000000000000000     
  0.50000000000000000     
  0.50000000000000000     
  0.50000000000000000     
  0.50000000000000000     
  0.50000000000000000     
  0.50000000000000000     
  0.50000000000000000     
  0.50000000000000000     
  0.50000000000000000     
  0.50000000000000000     
  0.50000000000000000     
  0.50000000000000000     
  0.50000000000000000     
  0.50000000000000000     
  0.50000000000000000     
  0.50000000000000000     
  0.50000000000000000     
  0.50000000000000000     
  0.50000000000000000     
  0.50000000000000000     
  0.50000000000000000     
  0.50000000000000000     
  0.50000000000000000     
  0.50000000000000000     
  0.50000000000000000     
  0.50000000000000000     
  0.50000000000000000     
  0.50000000000000000     
  0.50000000000000000     
  0.50000000000000000     
  0.50000000000000000     
  0.50000000000000000     
  0.50000000000000000     
  0.50000000000000000     
  0.50000000000000000     
  0.50000000000000000     
  0.50000000000000000     
  0.50000000000000000     
  0.50000000000000000     
  0.50000000000000000     
  0.50000000000000000     
  0.50000000000000000     
  0.50000000000000000     
  0.50000000000000000     
  0.50000000000000000     
  0.50000000000000000     
  0.50000000000000000     
  0.50000000000000000     
  0.50000000000000000     
  0.50000000000000000     
  0.50000000000000000     
  0.50000000000000000     
  0.50000000000000000     
  0.50000000000000000     
  0.50000000000000000     
  0.50000000000000000     
  0.50000000000000000     
  0.50000000000000000     
  0.50000000000000000     
  0.50000000000000000     
  0.50000000000000000     
  0.50000000000000000     
  0.50000000000000000     
  0.50000000000000000     
  0.50000000000000000     
  0.50000000000000000     
  0.50000000000000000     
  0.50000000000000000     
  0.50000000000000000     
  0.50000000000000000     
  0.50000000000000000     
  0.50000000000000000     
  0.50000000000000000     
  0.50000000000000000     
  0.50000000000000000     
  0.50000000000000000     
  0.50000000000000000     
  0.50000000000000000     
  0.50000000000000000     
  0.50000000000000000     
  0.50000000000000000     
  0.50000000000000000     
  0.50000000000000000     
  0.50000000000000000     
  0.50000000000000000     
  0.50000000000000000     
  0.50000000000000000     
  0.50000000000000000     
  0.50000000000000000     
  0.50000000000000000     
  0.50000000000000000     
  0.50000000000000000     
  0.50000000000000000     
  0.50000000000000000     
  0.50000000000000000     
  0.50000000000000000     
  0.50000000000000000     
  0.50000000000000000     
  0.50000000000000000     
  0.50000000000000000     
  0.50000000000000000     
  0.50000000000000000     
  0.50000000000000000     
  0.50000000000000000     
  0.50000000000000000     
  0.50000000000000000     
  0.50000000000000000     
  0.50000000000000000     
  0.50000000000000000     
  0.50000000000000000     
  0.50000000000000000     
  0.50000000000000000     
  0.50000000000000000     
  0.50000000000000000     
  0.50000000000000000     
  0.50000000000000000     
  0.50000000000000000     
  0.50000000000000000     
  0.50000000000000000     
  0.50000000000000000     
  0.50000000000000000     
  0.50000000000000000     
  0.50000000000000000     
  0.50000000000000000     
  0.50000000000000000     
  0.50000000000000000     
  0.50000000000000000     
  0.50000000000000000     
  0.50000000000000000     
  0.50000000000000000     
  0.50000000000000000     
  0.50000000000000000     
  0.50000000000000000     
  0.50000000000000000     
  0.50000000000000000     
  0.50000000000000000     
  0.50000000000000000     
  0.50000000000000000     
  0.50000000000000000     
  0.50000000000000000     
  0.50000000000000000     
  0.50000000000000000     
  0.50000000000000000     
  0.50000000000000000     
  0.50000000000000000     
  0.50000000000000000     
  0.50000000000000000     
  0.50000000000000000     
  0.50000000000000000     
  0.50000000000000000     
  0.50000000000000000     
  0.50000000000000000     
  0.50000000000000000     
  0.50000000000000000     
  0.50000000000000000     
  0.50000000000000000     
  0.50000000000000000     
  0.50000000000000000     
  0.50000000000000000     
  0.50000000000000000     
  0.50000000000000000     
  0.50000000000000000     
  0.50000000000000000     
  0.50000000000000000     
  0.50000000000000000     
  0.50000000000000000     
  0.50000000000000000     
  0.50000000000000000     
  0.50000000000000000     
  0.50000000000000000     
  0.50000000000000000     
  0.50000000000000000     
  0.50000000000000000     
  0.50000000000000000     
  0.50000000000000000     
  0.50000000000000000     
  0.50000000000000000     
  0.50000000000000000     
  0.50000000000000000     
  0.50000000000000000     
  0.50000000000000000     
  0.50000000000000000     
  0.50000000000000000     
  0.50000000000000000     
  0.50000000000000000     
  0.50000000000000000     
  0.50000000000000000     
  0.50000000000000000     
  0.50000000000000000     
  0.50000000000000000     
  0.50000000000000000     
  0.50000000000000000     
  0.50000000000000000     
  0.50000000000000000     
  0.50000000000000000     
  0.50000000000000000     
  0.50000000000000000     
  0.50000000000000000     
  0.50000000000000000     
  0.50000000000000000     
  0.50000000000000000     
  0.50000000000000000     
  0.50000000000000000     
  0.50000000000000000     
  0.50000000000000000     
  0.50000000000000000     
  0.50000000000000000     
  0.50000000000000000     
  0.50000000000000000     
  0.50000000000000000     
  0.50000000000000000     
  0.50000000000000000     
  0.50000000000000000     
  0.50000000000000000     
  0.50000000000000000     
  0.50000000000000000     
  0.50000000000000000     
  0.50000000000000000     
  0.50000000000000000     
  0.50000000000000000     
  0.50000000000000000     
  0.50000000000000000     
  0.50000000000000000     
  0.50000000000000000     
  0.50000000000000000     
  0.50000000000000000     
  0.50000000000000000     
  0.50000000000000000     
  0.50000000000000000     
  0.50000000000000000     
  0.50000000000000000     
  0.50000000000000000     
  0.50000000000000000     
  0.50000000000000000     
  0.50000000000000000     
  0.50000000000000000     
  0.50000000000000000     
  0.50000000000000000     
  0.50000000000000000     
  0.50000000000000000     
  0.50000000000000000     
  0.50000000000000000     
  0.50000000000000000     
  0.50000000000000000     
  0.50000000000000000     
  0.50000000000000000     
  0.50000000000000000     
  0.50000000000000000     
  0.50000000000000000     
  0.50000000000000000     
  0.50000000000000000     
  0.50000000000000000     
  0.50000000000000000     
  0.50000000000000000     
  0.50000000000000000     
  0.50000000000000000     
  0.50000000000000000     
  0.50000000000000000     
  0.50000000000000000     
  0.50000000000000000     
  0.50000000000000000     
  0.50000000000000000     
  0.50000000000000000     
  0.50000000000000000     
  0.50000000000000000     
  0.50000000000000000     
  0.50000000000000000     
  0.50000000000000000     
  0.50000000000000000     
  0.50000000000000000     
  0.50000000000000000     
  0.50000000000000000     
  0.50000000000000000     
  0.50000000000000000     
  0.50000000000000000     
  0.50000000000000000     
  0.50000000000000000     
  0.50000000000000000     
  0.50000000000000000     
  0.50000000000000000     
  0.50000000000000000     
  0.50000000000000000     
  0.50000000000000000     
  0.50000000000000000     
  0.50000000000000000     
  0.50000000000000000     
  0.50000000000000000     
  0.50000000000000000     
  0.50000000000000000     
  0.50000000000000000     
  0.50000000000000000     
  0.50000000000000000     
  0.50000000000000000     
  0.50000000000000000     
  0.50000000000000000     
  0.50000000000000000     
  0.50000000000000000     
  0.50000000000000000     
  0.50000000000000000     
  0.50000000000000000     
  0.50000000000000000     
  0.50000000000000000     
  0.50000000000000000     
  0.50000000000000000     
  0.50000000000000000     
  0.50000000000000000     
  0.50000000000000000     
  0.50000000000000000     
  0.50000000000000000     
  0.50000000000000000     
  0.50000000000000000     
  0.50000000000000000     
  0.50000000000000000     
  0.50000000000000000     
  0.50000000000000000     
  0.50000000000000000     
  0.50000000000000000     
  0.50000000000000000     
  0.50000000000000000     
  0.50000000000000000     
  0.50000000000000000     
  0.50000000000000000     
  0.50000000000000000     
  0.50000000000000000     
  0.50000000000000000     
  0.50000000000000000     
  0.50000000000000000     
  0.50000000000000000     
  0.50000000000000000     
  0.50000000000000000     
  0.50000000000000000     
  0.50000000000000000     
  0.50000000000000000     
  0.50000000000000000     
  0.50000000000000000     
  0.50000000000000000     
  0.50000000000000000     
  0.50000000000000000     
  0.50000000000000000     
  0.50000000000000000     
  0.50000000000000000     
  0.50000000000000000     
  0.50000000000000000     
  0.50000000000000000     
  0.50000000000000000     
  0.50000000000000000     
  0.50000000000000000     
  0.50000000000000000     
  0.50000000000000000     
  0.50000000000000000     
  0.50000000000000000     
  0.50000000000000000     
  0.50000000000000000     
  0.50000000000000000     
  0.50000000000000000     
  0.50000000000000000     
  0.50000000000000000     
  0.50000000000000000     
  0.50000000000000000     
  0.50000000000000000     
  0.50000000000000000     
  0.50000000000000000     
  0.50000000000000000     
  0.50000000000000000     
  0.50000000000000000     
  0.50000000000000000     
  0.50000000000000000     
  0.50000000000000000     
  0.50000000000000000     
  0.50000000000000000     
  0.50000000000000000     
  0.50000000000000000     
  0.50000000000000000     
  0.50000000000000000     
  0.50000000000000000     
  0.50000000000000000     
  0.50000000000000000     
  0.50000000000000000     
  0.50000000000000000     
  0.50000000000000000     
  0.50000000000000000     
  0.50000000000000000     
  0.50000000000000000     
  0.50000000000000000     
  0.50000000000000000     
  0.50000000000000000     
  0.50000000000000000     
  0.50000000000000000     
  0.50000000000000000     
  0.50000000000000000     
  0.50000000000000000     
  0.50000000000000000     
  0.50000000000000000     
  0.50000000000000000     
  0.50000000000000000     
  0.50000000000000000     
  0.50000000000000000     
  0.50000000000000000     
  0.50000000000000000     
  0.50000000000000000     
  0.50000000000000000     
  0.50000000000000000     
  0.50000000000000000     
  0.50000000000000000     
  0.50000000000000000     
  0.50000000000000000     
  0.50000000000000000     
  0.50000000000000000     
  0.50000000000000000     
  0.50000000000000000     
  0.50000000000000000     
  0.50000000000000000     
  0.50000000000000000     
  0.50000000000000000     
  0.50000000000000000     
  0.50000000000000000     
  0.50000000000000000     
  0.50000000000000000     
  0.50000000000000000     
  0.50000000000000000     
  0.50000000000000000     
  0.50000000000000000     
  0.50000000000000000     
  0.50000000000000000     
  0.50000000000000000     
  0.50000000000000000     
  0.50000000000000000     
