# vtk DataFile Version 5.1
Data.vtk
ASCII
DATASET UNSTRUCTURED_GRID
 
POINTS 500 float
  -1.1797466284989100       -8.0045586195962652        2.7549631350986057     
   8.9544429473989897       -2.9155290718157518      -0.93612025398600440     
   9.4645037416445668       0.21575051564676404       0.79099871446660408     
   3.3541858272314600       -6.4751808366659640       -2.6074514258262549     
   3.1347276918053377E-002  -6.0562305014039515       -1.1170198623705554     
   1.5733729718737017       -6.3917357372547805       -2.2671009358747725     
   1.5925224528447901       -8.1267536015441397        2.2951445525445147     
   5.1355259260989419       -5.5381223847808352       0.87523172210786671     
   7.1243146725792315       -4.5831287558595610       -1.5073777365683600     
   5.5967806102461797       -7.0299065043929465       -3.0832253038539883     
  0.92434521391429381       -6.8045633866803499       -3.8008919546434190     
   7.8956682329623398       -4.1218816091140233       -3.2987888198528292     
   5.1871540947312118       -6.4015511070879887        2.4015099092340315     
   1.5952262257756182       -7.4224658874925611       0.78137055455426119     
   3.2497673018178865       -6.0667729387075386       -3.5184864011368475     
 -0.71549640923650626       -7.5211348273899530      -0.97965793846523064     
  0.16311729915898726       -6.5743302733667708       -4.4101398112047514     
   6.5939838235684445E-002  -7.3351707943488424        2.1251280679682196     
   6.6447619263282620       -5.0544496276405573        2.2924140000060547     
  0.14756951652377739       -7.7778064138984950       -3.5006507183788229     
   5.8762800121773449       -4.7884035634833326      -0.81070971801466762     
   2.0847464893361423       -8.7986575997504897       -2.9087216743305118     
   3.6973609465728834       -8.5750120966135981        1.7427622167521835     
   6.7745968193446746       -4.3086563702766689        2.9705891021237187     
  0.46103066573060819       -8.5465770498930187       -1.1195277102126187     
   6.3850819124702358       -6.5777053195392385       -2.4918306658875853     
   3.9248471967523963       -5.3864801343146063        3.4816644386206286     
   8.8519780733055757       -2.7232708631057712       -1.9156813701264765     
   3.5895929240131483       -6.1215135524505850       -6.2743051818991340     
  0.99297089739342570       -6.1676168121005173        4.4479160089177334     
   7.5611863928798382      -0.84256245115869099       -3.1905219918164449     
   2.7136665835110518       -6.6133472774777937        4.9752529663453950     
   1.4324295036626660       -7.2870794445414768       -5.9187327228281097     
   2.7015763405121338       -7.1357580582469087       0.88495337165746246     
   1.8322452901605102       -9.1070299347459596       -1.9875697172455780     
   2.8909687517358309       -6.7896802336587845       -5.9731143392468571     
   8.0735948300365479       -1.7366351988788040       -4.6822654153350092     
   4.1424604371088085       -6.4839722057565687        5.5716004467958538     
   3.6358657674198196       -7.7148370369223622       0.67133977610033047     
   2.0979908709193227       -6.2702722021238291        6.2057788251485730     
   8.8084689622073338       -3.3047898776708124        1.0178601556955793     
   2.1712307418759624       -6.4343869103213027        3.4267085102060442     
   4.6378420877875177       -4.0496224520772746        5.7840058663671989     
   7.3183471773904758       -4.8418677505207910        3.6377834076554567     
   5.3738166520978234       -4.3028163491831952       -6.4138263160601108     
  -3.8679227525234561       -8.2827773223890695        2.5855180991363897     
   8.0500273435025473       -1.7193859444264739        1.2721349897408163     
  0.15908603623962245       -6.4709376104971845       -3.2282760646139090     
   5.7192722639965030       -5.5336071748291049       -3.0548071583950018     
   8.8990731252214257        1.0330161576494428       0.41474438006735942     
   1.1608360556424444       -7.6272764108416444       -9.5906120964543748E-002
   4.5200627469899723       -4.0166595094173259       -7.2954271336221632     
   6.2325414251331983       -4.4835653052095976        7.2659663509406017E-002
   8.2101478843940825       -4.4078825943020208        1.8252335078852409     
   7.7617694168646265       -3.9447592760899521        3.6835341918797027     
   4.5322905267300042       -5.9177188742086235       -5.8757005188838543     
   7.0655182389843345       -5.9912792830580726        2.1054539614824757     
   4.8791303266574717       -3.9368425485550556       -5.5290224019904954     
   2.9176405926850983       -8.3585082416073142       -3.4454775297380653     
   5.3713435127623805       -5.1491823697029151        4.2316911832395814     
   6.5202472763663115       -6.8674394690959568      -0.47015579814072445     
   6.8271938623371602       -5.4921701149370863       -3.6220564628603573     
   4.4938352583983239       -7.7948953229650400        3.0488924461460201     
   3.3047365120045922       -5.8630829892605432       -1.2886785983770030     
   1.0209707959554686       -8.7490347581246279       -3.5584815128289229     
   4.6036249573985835       -4.8667633576175975       -6.7354876409491773     
  0.22298735945069875       -7.2764078863871697       -2.6383998368897141     
   5.5434910790712522       -3.1054189089594528        5.2463741579140626     
  -2.4090615811087419       -9.1669614726730106       0.63787325980111320     
   5.2729957100539080       -4.5092756463458032        2.4897866526755199     
   7.3294152919164990       -3.1927567562936252       -5.1018951367373679     
   1.3565312621170569       -6.9315618706920485        6.3524113171465917     
   8.0586526375883079       -3.0449333780826247        4.0046217752273670     
   7.3796270981197054       -4.3900583507136632       0.26774174684802837     
   7.6896013769992484       -5.2655004412719935        1.7763075073227839     
   4.8743607296150229       -5.2415373396667766       -2.6009512463773206     
   5.2501427323704464       -6.2178000265655964        4.8395997390570118     
   4.5016119212922217       -6.2311137790065958      -0.87656555039692108     
   3.8883923513555612       -5.2867473571817323       -3.2589607807210488     
 -0.80044173479746239       -6.9396194189703424        1.6607282543113964     
 -0.66841308184872628       -8.0781385366492380       0.36710578976885172     
   4.2446232917254019       -6.0238395414314327       -2.6739900560964607     
   2.8159587242878752       -7.3115980946556327        3.3209074750031609     
   1.7142627257007128       -8.8264356388938463        3.0664473807775070     
   5.3497589872460924       -7.5233268454761779        2.2422963136649581     
   3.8321651774642738       -6.4529649297243932        1.8343124619357134     
   5.9099633364495965       -4.9068893508700091       0.91917710126783514     
   5.6739532934105110       -2.5502427786030446       -5.8381801463583143     
  0.67608550619614627       -6.8103249103191681       0.31601525103781658     
   3.7205091239737107       -8.7128458236361066      -0.69795071446923129     
   3.6599851137260617       -7.4582343512830098       -2.2680540140959735     
   7.8219080042429248       -2.3126813277139564        4.8680700478106287     
 -0.37413894013199672       -8.2298726257567090        2.2021213715986798     
   5.1956762470228517       -6.3236648604625714       -2.4998273780096101     
  -6.1457365511766622E-002  -8.0627763500731540       -5.0213999978689614     
   8.1404914229770711      -0.97515847916417042       -4.0295900191866947     
   6.3573118545943110       -6.6774077770712159        2.2904839177837908     
   9.2329757486716151       -2.2186354330716251      -0.27226266862489451     
 -0.59162465044495760       -8.1509777632561953        4.3228709519132567     
  -1.1209730748508009       -9.0016623185269005        2.8020549633571168     
 -0.68946183632574998       -7.5677287758935012       -4.0427294237212719     
   5.4621078924939042       -6.4639270373734137       -4.2202430775552831     
  -1.1064094450250446       -8.4695515715506779       -4.1581947193435234     
   8.1156170735464457       -4.8337454847176700      -0.32897731522846574     
   4.8923328079586561       -4.4013375377001305      -0.82827135959922227     
   8.9494823287687790       -3.1350412935773941        3.9703213031658774E-002
  -1.5462051087575148       -8.1692977043777084       -3.1811221147105626     
   7.0611174236204981       -4.2036755840018873       -2.5652677175111007     
 -0.24992382551044229       -7.1735748395633143       0.46358320844995538     
   7.8404961723160032       -3.5030180688069263       0.32156979211756909     
   8.5875625452985673       -2.4230523993482724       -2.8493593142581699     
   1.7520974314535507       -8.3213326183893876       0.37102835256429273     
   7.2989247660274161       -4.6419164347451822       -3.9254084844426989     
  -2.2884147896521774       -9.0376876118090301       -1.8304251778371172     
   2.7642748826005850       -7.2352828162926173      -0.82883716285535380     
   1.1586151430762310       -7.7594032264000061       -3.6144366946713391     
   6.4157965174992562       -3.5051970046585894       -4.3231740794973073     
   9.3830056729833089       -1.2838012128460721      -0.60423702646109045     
   4.1384764426433600       -8.3186356276878666       -1.9807536447540774     
   2.9447973398370095       -6.0744481995293595       0.38191248279042000     
   5.2624575257601549       -4.8780247059053421       -1.6673259340507436     
   5.0912789598453490       -8.0009633991017548       0.31808363069248768     
   6.3462167037812156       -6.2931828476377296        3.2135388781163150     
   8.6055402955254632       -3.9648052620738268      -0.40002701773731020     
   2.0081275799577534       -5.8938394157066334        8.1908938167420300E-002
[...]
POINT_DATA  500
SCALARS radius float
LOOKUP_TABLE default
  0.50000000000000000     
  0.50000000000000000     
  0.50000000000000000     
  0.50000000000000000     
  0.50000000000000000     
  0.50000000000000000     
  0.50000000000000000     
  0.50000000000000000     
  0.50000000000000000     
  0.50000000000000000     
  0.50000000000000000     
  0.50000000000000000     
  0.50000000000000000     
  0.50000000000000000     
  0.50000000000000000     
  0.50000000000000000     
  0.50000000000000000     
  0.50000000000000000     
  0.50000000000000000     
  0.50000000000000000     
  0.50000000000000000     
  0.50000000000000000     
  0.50000000000000000     
  0.50000000000000000     
  0.50000000000000000     
  0.50000000000000000     
  0.50000000000000000     
  0.50000000000000000     
  0.50000000000000000     
  0.50000000000000000     
  0.50000000000000000     
  0.50000000000000000     
  0.50000000000000000     
  0.50000000000000000     
  0.50000000000000000     
  0.50000000000000000     
  0.50000000000000000     
  0.50000000000000000     
  0.50000000000000000     
  0.50000000000000000     
  0.50000000000000000     
  0.50000000000000000     
  0.50000000000000000     
  0.50000000000000000     
  0.50000000000000000     
  0.50000000000000000     
  0.50000000000000000     
  0.50000000000000000     
  0.50000000000000000     
  0.50000000000000000     
  0.50000000000000000     
  0.50000000000000000     
  0.50000000000000000     
  0.50000000000000000     
  0.50000000000000000     
  0.50000000000000000     
  0.50000000000000000     
  0.50000000000000000     
  0.50000000000000000     
  0.50000000000000000     
  0.50000000000000000     
  0.50000000000000000     
  0.50000000000000000     
  0.50000000000000000     
  0.50000000000000000     
  0.50000000000000000     
  0.50000000000000000     
  0.50000000000000000     
  0.50000000000000000     
  0.50000000000000000     
  0.50000000000000000     
  0.50000000000000000     
  0.50000000000000000     
  0.50000000000000000     
  0.50000000000000000     
  0.50000000000000000     
  0.50000000000000000     
  0.50000000000000000     
  0.50000000000000000     
  0.50000000000000000     
  0.50000000000000000     
  0.50000000000000000     
  0.50000000000000000     
  0.50000000000000000     
  0.50000000000000000     
  0.50000000000000000     
  0.50000000000000000     
  0.50000000000000000     
  0.50000000000000000     
  0.50000000000000000     
  0.50000000000000000     
  0.50000000000000000     
  0.50000000000000000     
  0.50000000000000000     
  0.50000000000000000     
  0.50000000000000000     
  0.50000000000000000     
  0.50000000000000000     
  0.50000000000000000     
  0.50000000000000000     
  0.50000000000000000     
  0.50000000000000000     
  0.50000000000000000     
  0.50000000000000000     
  0.50000000000000000     
  0.50000000000000000     
  0.50000000000000000     
  0.50000000000000000     
  0.50000000000000000     
  0.50000000000000000     
  0.50000000000000000     
  0.50000000000000000     
  0.50000000000000000     
  0.50000000000000000     
  0.50000000000000000     
  0.50000000000000000     
  0.50000000000000000     
  0.50000000000000000     
  0.50000000000000000     
  0.50000000000000000     
  0.50000000000000000     
  0.50000000000000000     
  0.50000000000000000     
  0.50000000000000000     
  0.50000000000000000     
  0.50000000000000000     
  0.50000000000000000     
  0.50000000000000000     
  0.50000000000000000     
  0.50000000000000000     
  0.50000000000000000     
  0.50000000000000000     
  0.50000000000000000     
  0.50000000000000000     
  0.50000000000000000     
  0.50000000000000000     
  0.50000000000000000     
  0.50000000000000000     
  0.50000000000000000     
  0.50000000000000000     
  0.50000000000000000     
  0.50000000000000000     
  0.50000000000000000     
  0.50000000000000000     
  0.50000000000000000     
  0.50000000000000000     
  0.50000000000000000     
  0.50000000000000000     
  0.50000000000000000     
  0.50000000000000000     
  0.50000000000000000     
  0.50000000000000000     
  0.50000000000000000     
  0.50000000000000000     
  0.50000000000000000     
  0.50000000000000000     
  0.50000000000000000     
  0.50000000000000000     
  0.50000000000000000     
  0.50000000000000000     
  0.50000000000000000     
  0.50000000000000000     
  0.50000000000000000     
  0.50000000000000000     
  0.50000000000000000     
  0.50000000000000000     
  0.50000000000000000     
  0.50000000000000000     
  0.50000000000000000     
  0.50000000000000000     
  0.50000000000000000     
  0.50000000000000000     
  0.50000000000000000     
  0.50000000000000000     
  0.50000000000000000     
  0.50000000000000000     
  0.50000000000000000     
  0.50000000000000000     
  0.50000000000000000     
  0.50000000000000000     
  0.50000000000000000     
  0.50000000000000000     
  0.50000000000000000     
  0.50000000000000000     
  0.50000000000000000     
  0.50000000000000000     
  0.50000000000000000     
  0.50000000000000000     
  0.50000000000000000     
  0.50000000000000000     
  0.50000000000000000     
  0.50000000000000000     
  0.50000000000000000     
  0.50000000000000000     
  0.50000000000000000     
  0.50000000000000000     
  0.50000000000000000     
  0.50000000000000000     
  0.50000000000000000     
  0.50000000000000000     
  0.50000000000000000     
  0.50000000000000000     
  0.50000000000000000     
  0.50000000000000000     
  0.50000000000000000     
  0.50000000000000000     
  0.50000000000000000     
  0.50000000000000000     
  0.50000000000000000     
  0.50000000000000000     
  0.50000000000000000     
  0.50000000000000000     
  0.50000000000000000     
  0.50000000000000000     
  0.50000000000000000     
  0.50000000000000000     
  0.50000000000000000     
  0.50000000000000000     
  0.50000000000000000     
  0.50000000000000000     
  0.50000000000000000     
  0.50000000000000000     
  0.50000000000000000     
  0.50000000000000000     
  0.50000000000000000     
  0.50000000000000000     
  0.50000000000000000     
  0.50000000000000000     
  0.50000000000000000     
  0.50000000000000000     
  0.50000000000000000     
  0.50000000000000000     
  0.50000000000000000     
  0.50000000000000000     
  0.50000000000000000     
  0.50000000000000000     
  0.50000000000000000     
  0.50000000000000000     
  0.50000000000000000     
  0.50000000000000000     
  0.50000000000000000     
  0.50000000000000000     
  0.50000000000000000     
  0.50000000000000000     
  0.50000000000000000     
  0.50000000000000000     
  0.50000000000000000     
  0.50000000000000000     
  0.50000000000000000     
  0.50000000000000000     
  0.50000000000000000     
  0.50000000000000000     
  0.50000000000000000     
  0.50000000000000000     
  0.50000000000000000     
  0.50000000000000000     
  0.50000000000000000     
  0.50000000000000000     
  0.50000000000000000     
  0.50000000000000000     
  0.50000000000000000     
  0.50000000000000000     
  0.50000000000000000     
  0.50000000000000000     
  0.50000000000000000     
  0.50000000000000000     
  0.50000000000000000     
  0.50000000000000000     
  0.50000000000000000     
  0.50000000000000000     
  0.50000000000000000     
  0.50000000000000000     
  0.50000000000000000     
  0.50000000000000000     
  0.50000000000000000     
  0.50000000000000000     
  0.50000000000000000     
  0.50000000000000000     
  0.50000000000000000     
  0.50000000000000000     
  0.50000000000000000     
  0.50000000000000000     
  0.50000000000000000     
  0.50000000000000000     
  0.50000000000000000     
  0.50000000000000000     
  0.50000000000000000     
  0.50000000000000000     
  0.50000000000000000     
  0.50000000000000000     
  0.50000000000000000     
  0.50000000000000000     
  0.50000000000000000     
  0.50000000000000000     
  0.50000000000000000     
  0.50000000000000000     
  0.50000000000000000     
  0.50000000000000000     
  0.50000000000000000     
  0.50000000000000000     
  0.50000000000000000     
  0.50000000000000000     
  0.50000000000000000     
  0.50000000000000000     
  0.50000000000000000     
  0.50000000000000000     
  0.50000000000000000     
  0.50000000000000000     
  0.50000000000000000     
  0.50000000000000000     
  0.50000000000000000     
  0.50000000000000000     
  0.50000000000000000     
  0.50000000000000000     
  0.50000000000000000     
  0.50000000000000000     
  0.50000000000000000     
  0.50000000000000000     
  0.50000000000000000     
  0.50000000000000000     
  0.50000000000000000     
  0.50000000000000000     
  0.50000000000000000     
  0.50000000000000000     
  0.50000000000000000     
  0.50000000000000000     
  0.50000000000000000     
  0.50000000000000000     
  0.50000000000000000     
  0.50000000000000000     
  0.50000000000000000     
  0.50000000000000000     
  0.50000000000000000     
  0.50000000000000000     
  0.50000000000000000     
  0.50000000000000000     
  0.50000000000000000     
  0.50000000000000000     
  0.50000000000000000     
  0.50000000000000000     
  0.50000000000000000     
  0.50000000000000000     
  0.50000000000000000     
  0.50000000000000000     
  0.50000000000000000     
  0.50000000000000000     
  0.50000000000000000     
  0.50000000000000000     
  0.50000000000000000     
  0.50000000000000000     
  0.50000000000000000     
  0.50000000000000000     
  0.50000000000000000     
  0.50000000000000000     
  0.50000000000000000     
  0.50000000000000000     
  0.50000000000000000     
  0.50000000000000000     
  0.50000000000000000     
  0.50000000000000000     
  0.50000000000000000     
  0.50000000000000000     
  0.50000000000000000     
  0.50000000000000000     
  0.50000000000000000     
  0.50000000000000000     
  0.50000000000000000     
  0.50000000000000000     
  0.50000000000000000     
  0.50000000000000000     
  0.50000000000000000     
  0.50000000000000000     
  0.50000000000000000     
  0.50000000000000000     
  0.50000000000000000     
  0.50000000000000000     
  0.50000000000000000     
  0.50000000000000000     
  0.50000000000000000     
  0.50000000000000000     
  0.50000000000000000     
  0.50000000000000000     
  0.50000000000000000     
  0.50000000000000000     
  0.50000000000000000     
  0.50000000000000000     
  0.50000000000000000     
  0.50000000000000000     
  0.50000000000000000     
  0.50000000000000000     
  0.50000000000000000     
  0.50000000000000000     
  0.50000000000000000     
  0.50000000000000000     
  0.50000000000000000     
  0.50000000000000000     
  0.50000000000000000     
  0.50000000000000000     
  0.50000000000000000     
  0.50000000000000000     
  0.50000000000000000     
  0.50000000000000000     
  0.50000000000000000     
  0.50000000000000000     
  0.50000000000000000     
  0.50000000000000000     
  0.50000000000000000     
  0.50000000000000000     
  0.50000000000000000     
  0.50000000000000000     
  0.50000000000000000     
  0.50000000000000000     
  0.50000000000000000     
  0.50000000000000000     
  0.50000000000000000     
  0.50000000000000000     
  0.50000000000000000     
  0.50000000000000000     
  0.50000000000000000     
  0.50000000000000000     
  0.50000000000000000     
  0.50000000000000000     
  0.50000000000000000     
  0.50000000000000000     
  0.50000000000000000     
  0.50000000000000000     
  0.50000000000000000     
  0.50000000000000000     
  0.50000000000000000     
  0.50000000000000000     
  0.50000000000000000     
  0.50000000000000000     
  0.50000000000000000     
  0.50000000000000000     
  0.50000000000000000     
  0.50000000000000000     
  0.50000000000000000     
  0.50000000000000000     
  0.50000000000000000     
  0.50000000000000000     
  0.50000000000000000     
  0.50000000000000000     
  0.50000000000000000     
  0.50000000000000000     
  0.50000000000000000     
  0.50000000000000000     
  0.50000000000000000     
  0.50000000000000000     
  0.50000000000000000     
  0.50000000000000000     
  0.50000000000000000     
  0.50000000000000000     
  0.50000000000000000     
  0.50000000000000000     
  0.50000000000000000     
  0.50000000000000000     
  0.50000000000000000     
  0.50000000000000000     
  0.50000000000000000     
  0.50000000000000000     
  0.50000000000000000     
  0.50000000000000000     
  0.50000000000000000     
  0.50000000000000000     
  0.50000000000000000     
  0.50000000000000000     
  0.50000000000000000     
  0.50000000000000000     
  0.50000000000000000     
  0.50000000000000000     
  0.50000000000000000     
  0.50000000000000000     
  0.50000000000000000     
  0.50000000000000000     
  0.50000000000000000     
  0.50000000000000000     
  0.50000000000000000     
  0.50000000000000000     
  0.50000000000000000     
  0.50000000000000000     
  0.50000000000000000     
  0.50000000000000000     
  0.50000000000000000     
  0.50000000000000000     
  0.50000000000000000     
  0.50000000000000000     
  0.50000000000000000     
  0.50000000000000000     
  0.50000000000000000     
  0.50000000000000000     
  0.50000000000000000     
  0.50000000000000000     
  0.50000000000000000     
  0.50000000000000000     
  0.50000000000000000     
  0.50000000000000000     
  0.50000000000000000     
  0.50000000000000000     
  0.50000000000000000     
  0.50000000000000000     
