# vtk DataFile Version 5.1
Data.vtk
ASCII
DATASET UNSTRUCTURED_GRID
 
POINTS 500 float
   3.0501841616591148       -5.2045164993278066        7.3102797726698050     
   2.4070564743676339       -6.3501687194123093       -3.4665500711596322     
   7.8935965479092536       -4.8409204915602269       -2.1210798920950436     
   6.8940387807220675       -4.8889611618108830       -1.6295716978213122     
   5.8023056222688805       -7.4327091880838019       -1.1580981648763968     
 -0.71082333743268500       -7.3345643546907446       -2.2403866948091995     
   6.6907276107723259       -3.1502642601515585        5.6894444204576828     
 -0.19329275331313331       -7.9605767012428217       0.97003095542837159     
   9.2984060781365567      -0.76545225109091275       -1.5122162250549573     
   6.9674857931281737      -0.99912674921846489       -6.2122797486757326     
  -1.1869264012491703       -7.9208166026418576       -2.9775391279908874     
  0.10063340527221384       -6.6369538064688989      -0.72806006692285774     
   5.0379502138625520       -6.6145811706357218        3.0873606327060252     
   8.0689559119397085       0.92296051686789082       -3.0949301042275401     
   7.1494798628413481       -3.2858505370917483        3.2612463008753285     
  -1.6023618840660157       -6.7571110920322459        1.5635512715075526     
   8.6869335901283229       -1.3514885379387351       -3.2089710590535967     
 -0.71497638220462345       -9.4149311310159280       0.11909270361331967     
   7.8583341576849550       -2.0558787559959821        4.1203589922362118     
   4.4397999327746582       -6.1936507762644437       -4.1162709025702071     
  -1.0323886620647300       -7.0605046562852758      -0.44965356846442833     
   2.5421282933316327       -4.9060139518303805       -1.9841072616553515     
  0.75292634905825206       -7.7863360405385551        3.7914304741847435     
   6.3767058205951495       -6.4216631729053644        2.8868468430109311     
   1.9195590737111035       -8.2783816998159434       -1.4031869006082345     
   8.7305960134515566       -3.3604367037467600       -1.0760374024383785     
   2.4266199076303983E-002  -8.0711955605677748        3.1130936784493453     
   6.9470146818628749       -6.4497404738670161       0.62500577884528941     
   3.8558388511939916       -5.9624359618606864       -4.8949219964021378     
  -1.9547232771001788       -7.2159828188711845        2.4060751406744627     
  -1.6745909457143606       -7.8990904192650353       0.37869518803314300     
   2.4526479253911480       -5.1469450139802939        6.3494957312312472     
   1.7003705472659594       -7.6619266297842028       -4.9422458508308029     
   9.0707242189494934       -2.3399989314805461       -1.5673712780777125     
   7.0741474264926749       -1.6666647718517935       -4.2165432842468160     
   3.3100340152703529       -5.9133655412887256       -3.4656339630863995     
   4.5728034061980338       -6.2698822089036961      -0.91908961700099445     
  0.45314591341712718       -8.1577432770492173        4.8441385097375642     
   2.5137562660434143       -8.0285656870366466        1.3756632096230306     
   7.9979460404686744       -1.5461375638171933        3.2705134380975629     
  0.74655869623292070       -8.8078612396996956       0.93921048794583573     
   2.6592431330990873       -6.7614168256033906        2.5415644718107142     
   9.3192555365089298       -1.4272188127113021       0.93706264728010547     
   8.1645694938254181       -2.9687434354181854        3.8298711421839489     
   6.7190374234959069       -4.6146476158525083       -4.8751201342111781     
   4.6645005580550416       -4.7860303165096738      -0.98324331731835102     
   4.4499695216278212       -7.0713654009580376        4.5214944055357327     
   2.0575105396554343       -6.3286812598616917      -0.34654789643933820     
   3.2033725084396680       -7.0888140162502742       -3.4588549284250316     
   8.0036373688161238       -3.0201181017129661       -4.0489165671817817     
   5.4320476394239545       -6.4152029344655555       -1.5468457981112580     
   4.6206372890071883       -5.2824806226121472       -4.9529006624503946     
 -0.70985486192854108       -7.8283452309453887       0.12412749659135119     
   8.0751734478885897       -1.3930307594804540E-002  -2.6114949354793522     
   3.6279495336440335       -8.6235694616371870        1.6498709720132023     
   7.2805056931156376       -5.6286602763944318       -2.1836894050483862     
 -0.75304483005691358       -9.1466303632588009        2.4540668471792726     
  -8.0983464693280653E-003  -5.8886607933860127       -1.3971453775698623     
   6.1320869759620784       -4.1673005921226460       -4.1898685173664267     
   3.0308383126047529       -7.1320274824864081        3.8658841440925555     
   3.8367704655934873       -8.6646931919899650       0.67273716557864482     
  -3.3545555915540599E-002  -6.6004502966852492       -2.4225098442803503     
   5.3123726315981221       -6.7122946294124466        4.1199142041104508     
   4.6215985292414548       -7.0389002812168666       -1.5564357021559498     
   7.8641135285516199       -1.2016819164829144       -5.1380479698374284     
   6.7125025382516856       -2.8241574763033350       -5.7268720513185167     
  0.21725593291079098       -8.4367303854711384       -1.8195428667099767     
  -3.4812715777884393       -8.6930512861449074       0.49990622395478024     
   7.7645948261144282       -5.4496505893238592      -0.30660630814756268     
   6.7099783108988014       -4.1846169125019941        3.2770944316208657     
   7.4989032648182246       -2.1058765246868609       -5.4024979531766997     
   7.6707782461616567       -3.7835014573098271        4.1335909553515986     
 -0.91710978313524372       -8.6217697779902007       0.71048407499602761     
   3.8057399750049803       -7.6762542357941452        1.1856436440108533     
  0.51387185879212649       -6.6113959557142135        2.1485635111916230     
  0.17429715490514519       -6.0686728274380446       0.10406452496291563     
   5.3197960860408697       -4.5037643061811927        6.0031656562620794     
   6.7225240999031186       -5.5390381040321808       0.27832345259618169     
   2.1002838298740212       -5.4137072175110088       0.10615419306608602     
   2.3929184972844557       -6.8008246423151446       -2.5716275768557297     
   2.0926056662420476       -7.1413056831779604       -1.6804963515290257     
   6.5534329945171415       -6.8206078949719542      -0.88399420898341863     
 -0.34807205342086489       -8.6146526327004089        1.7104334722624210     
   6.5741563189111583       -6.5908121772999211        1.7964096528293487     
   1.0287977801778603       -6.3868051372721766        4.2635803327802062     
   5.4697072379590015       -5.3898058879290023        3.9144738644738872     
  0.60031589600826984       -7.5870363247183583        2.4470484733149345     
   1.4003411699813588       -6.1054946213367902        1.7086087854666814     
   2.9199219565312435       -6.2513291324784923        3.3632081924811859     
   6.6470517357887866       -6.1813544011260539       -2.7252080871420366     
   1.3661726108137542       -7.8414963727422258       -3.0827841160033578     
   8.2501322399240085       -1.2031514220416695       -4.1436523734685737     
   6.2491094266180296       -7.0865746296208023       0.98947108105107839     
   4.9624536103389634       -6.6295604305768210       -2.4036112224385149     
   4.5941924325286498       -3.7279302277981783       -3.4377334210951327     
   3.5122060473977021       -6.1014363035628341       -6.3785269146404326     
   5.4488227984840805       -6.5341475922915926        1.2226487732887996     
   8.3585434313499398       -3.4218899938155545        2.9350623103513298     
   6.1209897113314984       -2.7593697141945901        6.4134903134742647     
   3.8589795515223426       -4.9162869509072404        3.7863165579095610     
  -2.0461916166801069       -8.8692211554262972       -2.4040906735578225     
   2.4318403024788067       -8.3662174985755460       -3.7872016885556250     
 -0.29849134763491636       -8.2481159516690958       -2.6554401407146169     
   8.9465157083961131      -0.58246361012812642       -2.6245644143366929     
   7.4611448860443872       -5.1035130793214698        2.9217766778845511     
   6.1115442672008173       -4.6069105504212944        3.9727207968725096     
   1.5050320569866948       -6.8944799746417313       -3.4474070148177121     
 -0.87856877645880160       -9.3725274731928714       -1.2769526830170017     
 -0.72578012622777044       -7.0176402624318621        3.2944010548215354     
   7.5205377472273920       -3.3865561929425452       -1.1765763191250878     
   1.1273435815280055       -7.3732386010348296       -1.5618137184908556     
  -1.8761907481453601       -9.2000543140192459       -1.4453294515977606     
   8.3151340010490937       -3.1180710026684166       -3.0521427307627014     
   2.6698737466366511       -7.0316393874505909      -0.85365589643083251     
   2.9968566502705061       -6.1142059845045589      -0.62601514245606293     
 -0.53785238211211228       -8.4466908990113652       -1.1108261404108177     
   7.8654068608927927       -3.8690717578506542       -3.5386556112348448     
   4.1608170351164997       -5.3911941957320382       -3.5691290768203303     
   1.1307304096961071       -8.1691853774203906       -2.1669810340093840     
   2.2107806981846179       -8.6253588259447405        3.3116589201953488     
   5.1084804640195056       -4.2038595324657502       -5.0356352857821731     
   4.6239562542835122       -8.2974334549971882      -0.13462722845417194     
  -1.0389552767208770       -7.8827315154943927        1.4983656443409763     
   4.7483921661268687       -6.3841838442260430        5.1908835735234957     
   8.8446706360920704      -0.99451915175818362       0.16102781893453966     
[...]
POINT_DATA  500
SCALARS radius float
LOOKUP_TABLE default
  0.50000000000000000     
  0.50000000000000000     
  0.50000000000000000     
  0.50000000000000000     
  0.50000000000000000     
  0.50000000000000000     
  0.50000000000000000     
  0.50000000000000000     
  0.50000000000000000     
  0.50000000000000000     
  0.50000000000000000     
  0.50000000000000000     
  0.50000000000000000     
  0.50000000000000000     
  0.50000000000000000     
  0.50000000000000000     
  0.50000000000000000     
  0.50000000000000000     
  0.50000000000000000     
  0.50000000000000000     
  0.50000000000000000     
  0.50000000000000000     
  0.50000000000000000     
  0.50000000000000000     
  0.50000000000000000     
  0.50000000000000000     
  0.50000000000000000     
  0.50000000000000000     
  0.50000000000000000     
  0.50000000000000000     
  0.50000000000000000     
  0.50000000000000000     
  0.50000000000000000     
  0.50000000000000000     
  0.50000000000000000     
  0.50000000000000000     
  0.50000000000000000     
  0.50000000000000000     
  0.50000000000000000     
  0.50000000000000000     
  0.50000000000000000     
  0.50000000000000000     
  0.50000000000000000     
  0.50000000000000000     
  0.50000000000000000     
  0.50000000000000000     
  0.50000000000000000     
  0.50000000000000000     
  0.50000000000000000     
  0.50000000000000000     
  0.50000000000000000     
  0.50000000000000000     
  0.50000000000000000     
  0.50000000000000000     
  0.50000000000000000     
  0.50000000000000000     
  0.50000000000000000     
  0.50000000000000000     
  0.50000000000000000     
  0.50000000000000000     
  0.50000000000000000     
  0.50000000000000000     
  0.50000000000000000     
  0.50000000000000000     
  0.50000000000000000     
  0.50000000000000000     
  0.50000000000000000     
  0.50000000000000000     
  0.50000000000000000     
  0.50000000000000000     
  0.50000000000000000     
  0.50000000000000000     
  0.50000000000000000     
  0.50000000000000000     
  0.50000000000000000     
  0.50000000000000000     
  0.50000000000000000     
  0.50000000000000000     
  0.50000000000000000     
  0.50000000000000000     
  0.50000000000000000     
  0.50000000000000000     
  0.50000000000000000     
  0.50000000000000000     
  0.50000000000000000     
  0.50000000000000000     
  0.50000000000000000     
  0.50000000000000000     
  0.50000000000000000     
  0.50000000000000000     
  0.50000000000000000     
  0.50000000000000000     
  0.50000000000000000     
  0.50000000000000000     
  0.50000000000000000     
  0.50000000000000000     
  0.50000000000000000     
  0.50000000000000000     
  0.50000000000000000     
  0.50000000000000000     
  0.50000000000000000     
  0.50000000000000000     
  0.50000000000000000     
  0.50000000000000000     
  0.50000000000000000     
  0.50000000000000000     
  0.50000000000000000     
  0.50000000000000000     
  0.50000000000000000     
  0.50000000000000000     
  0.50000000000000000     
  0.50000000000000000     
  0.50000000000000000     
  0.50000000000000000     
  0.50000000000000000     
  0.50000000000000000     
  0.50000000000000000     
  0.50000000000000000     
  0.50000000000000000     
  0.50000000000000000     
  0.50000000000000000     
  0.50000000000000000     
  0.50000000000000000     
  0.50000000000000000     
  0.50000000000000000     
  0.50000000000000000     
  0.50000000000000000     
  0.50000000000000000     
  0.50000000000000000     
  0.50000000000000000     
  0.50000000000000000     
  0.50000000000000000     
  0.50000000000000000     
  0.50000000000000000     
  0.50000000000000000     
  0.50000000000000000     
  0.50000000000000000     
  0.50000000000000000     
  0.50000000000000000     
  0.50000000000000000     
  0.50000000000000000     
  0.50000000000000000     
  0.50000000000000000     
  0.50000000000000000     
  0.50000000000000000     
  0.50000000000000000     
  0.50000000000000000     
  0.50000000000000000     
  0.50000000000000000     
  0.50000000000000000     
  0.50000000000000000     
  0.50000000000000000     
  0.50000000000000000     
  0.50000000000000000     
  0.50000000000000000     
  0.50000000000000000     
  0.50000000000000000     
  0.50000000000000000     
  0.50000000000000000     
  0.50000000000000000     
  0.50000000000000000     
  0.50000000000000000     
  0.50000000000000000     
  0.50000000000000000     
  0.50000000000000000     
  0.50000000000000000     
  0.50000000000000000     
  0.50000000000000000     
  0.50000000000000000     
  0.50000000000000000     
  0.50000000000000000     
  0.50000000000000000     
  0.50000000000000000     
  0.50000000000000000     
  0.50000000000000000     
  0.50000000000000000     
  0.50000000000000000     
  0.50000000000000000     
  0.50000000000000000     
  0.50000000000000000     
  0.50000000000000000     
  0.50000000000000000     
  0.50000000000000000     
  0.50000000000000000     
  0.50000000000000000     
  0.50000000000000000     
  0.50000000000000000     
  0.50000000000000000     
  0.50000000000000000     
  0.50000000000000000     
  0.50000000000000000     
  0.50000000000000000     
  0.50000000000000000     
  0.50000000000000000     
  0.50000000000000000     
  0.50000000000000000     
  0.50000000000000000     
  0.50000000000000000     
  0.50000000000000000     
  0.50000000000000000     
  0.50000000000000000     
  0.50000000000000000     
  0.50000000000000000     
  0.50000000000000000     
  0.50000000000000000     
  0.50000000000000000     
  0.50000000000000000     
  0.50000000000000000     
  0.50000000000000000     
  0.50000000000000000     
  0.50000000000000000     
  0.50000000000000000     
  0.50000000000000000     
  0.50000000000000000     
  0.50000000000000000     
  0.50000000000000000     
  0.50000000000000000     
  0.50000000000000000     
  0.50000000000000000     
  0.50000000000000000     
  0.50000000000000000     
  0.50000000000000000     
  0.50000000000000000     
  0.50000000000000000     
  0.50000000000000000     
  0.50000000000000000     
  0.50000000000000000     
  0.50000000000000000     
  0.50000000000000000     
  0.50000000000000000     
  0.50000000000000000     
  0.50000000000000000     
  0.50000000000000000     
  0.50000000000000000     
  0.50000000000000000     
  0.50000000000000000     
  0.50000000000000000     
  0.50000000000000000     
  0.50000000000000000     
  0.50000000000000000     
  0.50000000000000000     
  0.50000000000000000     
  0.50000000000000000     
  0.50000000000000000     
  0.50000000000000000     
  0.50000000000000000     
  0.50000000000000000     
  0.50000000000000000     
  0.50000000000000000     
  0.50000000000000000     
  0.50000000000000000     
  0.50000000000000000     
  0.50000000000000000     
  0.50000000000000000     
  0.50000000000000000     
  0.50000000000000000     
  0.50000000000000000     
  0.50000000000000000     
  0.50000000000000000     
  0.50000000000000000     
  0.50000000000000000     
  0.50000000000000000     
  0.50000000000000000     
  0.50000000000000000     
  0.50000000000000000     
  0.50000000000000000     
  0.50000000000000000     
  0.50000000000000000     
  0.50000000000000000     
  0.50000000000000000     
  0.50000000000000000     
  0.50000000000000000     
  0.50000000000000000     
  0.50000000000000000     
  0.50000000000000000     
  0.50000000000000000     
  0.50000000000000000     
  0.50000000000000000     
  0.50000000000000000     
  0.50000000000000000     
  0.50000000000000000     
  0.50000000000000000     
  0.50000000000000000     
  0.50000000000000000     
  0.50000000000000000     
  0.50000000000000000     
  0.50000000000000000     
  0.50000000000000000     
  0.50000000000000000     
  0.50000000000000000     
  0.50000000000000000     
  0.50000000000000000     
  0.50000000000000000     
  0.50000000000000000     
  0.50000000000000000     
  0.50000000000000000     
  0.50000000000000000     
  0.50000000000000000     
  0.50000000000000000     
  0.50000000000000000     
  0.50000000000000000     
  0.50000000000000000     
  0.50000000000000000     
  0.50000000000000000     
  0.50000000000000000     
  0.50000000000000000     
  0.50000000000000000     
  0.50000000000000000     
  0.50000000000000000     
  0.50000000000000000     
  0.50000000000000000     
  0.50000000000000000     
  0.50000000000000000     
  0.50000000000000000     
  0.50000000000000000     
  0.50000000000000000     
  0.50000000000000000     
  0.50000000000000000     
  0.50000000000000000     
  0.50000000000000000     
  0.50000000000000000     
  0.50000000000000000     
  0.50000000000000000     
  0.50000000000000000     
  0.50000000000000000     
  0.50000000000000000     
  0.50000000000000000     
  0.50000000000000000     
  0.50000000000000000     
  0.50000000000000000     
  0.50000000000000000     
  0.50000000000000000     
  0.50000000000000000     
  0.50000000000000000     
  0.50000000000000000     
  0.50000000000000000     
  0.50000000000000000     
  0.50000000000000000     
  0.50000000000000000     
  0.50000000000000000     
  0.50000000000000000     
  0.50000000000000000     
  0.50000000000000000     
  0.50000000000000000     
  0.50000000000000000     
  0.50000000000000000     
  0.50000000000000000     
  0.50000000000000000     
  0.50000000000000000     
  0.50000000000000000     
  0.50000000000000000     
  0.50000000000000000     
  0.50000000000000000     
  0.50000000000000000     
  0.50000000000000000     
  0.50000000000000000     
  0.50000000000000000     
  0.50000000000000000     
  0.50000000000000000     
  0.50000000000000000     
  0.50000000000000000     
  0.50000000000000000     
  0.50000000000000000     
  0.50000000000000000     
  0.50000000000000000     
  0.50000000000000000     
  0.50000000000000000     
  0.50000000000000000     
  0.50000000000000000     
  0.50000000000000000     
  0.50000000000000000     
  0.50000000000000000     
  0.50000000000000000     
  0.50000000000000000     
  0.50000000000000000     
  0.50000000000000000     
  0.50000000000000000     
  0.50000000000000000     
  0.50000000000000000     
  0.50000000000000000     
  0.50000000000000000     
  0.50000000000000000     
  0.50000000000000000     
  0.50000000000000000     
  0.50000000000000000     
  0.50000000000000000     
  0.50000000000000000     
  0.50000000000000000     
  0.50000000000000000     
  0.50000000000000000     
  0.50000000000000000     
  0.50000000000000000     
  0.50000000000000000     
  0.50000000000000000     
  0.50000000000000000     
  0.50000000000000000     
  0.50000000000000000     
  0.50000000000000000     
  0.50000000000000000     
  0.50000000000000000     
  0.50000000000000000     
  0.50000000000000000     
  0.50000000000000000     
  0.50000000000000000     
  0.50000000000000000     
  0.50000000000000000     
  0.50000000000000000     
  0.50000000000000000     
  0.50000000000000000     
  0.50000000000000000     
  0.50000000000000000     
  0.50000000000000000     
  0.50000000000000000     
  0.50000000000000000     
  0.50000000000000000     
  0.50000000000000000     
  0.50000000000000000     
  0.50000000000000000     
  0.50000000000000000     
  0.50000000000000000     
  0.50000000000000000     
  0.50000000000000000     
  0.50000000000000000     
  0.50000000000000000     
  0.50000000000000000     
  0.50000000000000000     
  0.50000000000000000     
  0.50000000000000000     
  0.50000000000000000     
  0.50000000000000000     
  0.50000000000000000     
  0.50000000000000000     
  0.50000000000000000     
  0.50000000000000000     
  0.50000000000000000     
  0.50000000000000000     
  0.50000000000000000     
  0.50000000000000000     
  0.50000000000000000     
  0.50000000000000000     
  0.50000000000000000     
  0.50000000000000000     
  0.50000000000000000     
  0.50000000000000000     
  0.50000000000000000     
  0.50000000000000000     
  0.50000000000000000     
  0.50000000000000000     
  0.50000000000000000     
  0.50000000000000000     
  0.50000000000000000     
  0.50000000000000000     
  0.50000000000000000     
  0.50000000000000000     
  0.50000000000000000     
  0.50000000000000000     
  0.50000000000000000     
  0.50000000000000000     
  0.50000000000000000     
  0.50000000000000000     
  0.50000000000000000     
  0.50000000000000000     
  0.50000000000000000     
  0.50000000000000000     
  0.50000000000000000     
  0.50000000000000000     
  0.50000000000000000     
  0.50000000000000000     
  0.50000000000000000     
  0.50000000000000000     
  0.50000000000000000     
  0.50000000000000000     
  0.50000000000000000     
  0.50000000000000000     
  0.50000000000000000     
  0.50000000000000000     
  0.50000000000000000     
  0.50000000000000000     
  0.50000000000000000     
  0.50000000000000000     
  0.50000000000000000     
  0.50000000000000000     
  0.50000000000000000     
  0.50000000000000000     
  0.50000000000000000     
  0.50000000000000000     
  0.50000000000000000     
  0.50000000000000000     
  0.50000000000000000     
  0.50000000000000000     
  0.50000000000000000     
  0.50000000000000000     
  0.50000000000000000     
  0.50000000000000000     
  0.50000000000000000     
  0.50000000000000000     
  0.50000000000000000     
  0.50000000000000000     
  0.50000000000000000     
  0.50000000000000000     
