# vtk DataFile Version 5.1
Data.vtk
ASCII
DATASET UNSTRUCTURED_GRID
 
POINTS 500 float
   6.3385167669468743       -6.2767766808783874        3.2558538353080775     
   6.5481845643242007       -3.6034012365677150       -3.1613232172296781     
  -2.2802011505853041       -8.5368577427482109       -3.4295551689056150     
   4.8552619618787380       -6.9843293543149940       -1.1724683206489721     
  -1.6238179602290683       -7.2882192849261989       -2.5202996001010312     
   2.0552889182136833       -6.8935932652340073       -2.4594328016271412     
   1.9247516806521923       -8.0385164935092668        4.6827487896815638     
   1.1680101085806447       -7.6295844989695913       0.79546563064467823     
   3.3021691669030417       -8.9047938865348417       0.22821909862418163     
   5.3028866298580137       -7.4523512882795915       -2.5672624813563223     
   2.6516992546963825       -6.7389348446261339       -4.9195709774965000     
   5.2017404322174103       -5.4528279208567403       -1.5605657585280897     
   4.0059745968292289       -6.9230400719812071        3.1628810627177821     
   4.2770867370862957       -8.3203005438326603       -1.6527415745282785     
   7.0983403840293393       -4.5061702173917277        1.4605547639456296     
   9.0889793013719178       -2.4059794129839740       -1.2328230118589329     
   1.3767134885153900       -9.2522334325971620       -1.6586185441478503     
   1.1890802458590874       -6.6651708961327278       -5.3477256583143500E-002
  0.75457246466258499       -8.6892831807102144        3.7649841759761586     
   6.4639512311532137       -4.5991130596778680       -3.1265543302037964     
   1.2933299793548840       -7.4011474530623111       -1.0247438987303932     
   6.2812227481650877       -7.0676392835024826      -0.89999913094246864     
   4.4909021810576206       -5.2189008384122344        5.0988389573837125     
 -0.99354860979114590       -7.4484593099009606        5.8122819769107155     
 -0.68650448409329379       -8.6271318525884197       -1.7166618430825440     
  -2.1824417176870767       -9.1871786105510118       -1.0176063402305751     
   1.8845101819401004       -7.0163915797559770        2.5622897754817693     
  -2.2241993308386308       -7.6011425348626753      -0.48016786449120552     
   7.6800534091414789       -5.0781637142374798       -2.3396909681236644     
   9.0876121520042243       -1.6917171086238523        2.0069895348981803     
   2.7518044871710168       -6.2680804577424638      -0.35910796592091188     
   5.5992485977810613       -6.9501190727297075        3.2540435365375249     
   5.5517065363177860       -3.6474602842614798       -6.7915449943548643     
   7.5822671368764210E-003  -9.4941626359220184      -0.31443412916729946     
   3.8483970076295546       -7.9996692853422076       -3.3711173111500461     
   8.8886406725879432       -2.5247113554788387       -2.2059554771122021     
   5.7098186675360179       -5.3544072392210733      -0.70353592043450330     
   5.4571347523463345       -5.1886934702854983        5.7593715867915867     
  -6.8318693026635818E-002  -8.4200322234303897        2.0605201436495251     
   1.0488617336816590       -8.9963463378562327        2.8600085826696549     
 -0.82701307995758888       -7.5566960064224480       0.67315396176755071     
   3.6513277145654914       -6.0985732630131269        2.6986238960709028     
 -0.95056096223371767       -9.3783092943032678        1.1808416101739039     
  -1.0397842424712016       -8.3579391253505264        4.3947457706502764     
   1.6610333116717095       -8.1732801338637646       -4.5484068726437981     
   5.1429132042938379       -7.8152978879592236       -1.6493045267196687     
   8.1197466792727315       -1.3937926835891146        4.2596972881565787     
   8.6260905074977199       -3.9678917776444229       -8.6307407390347660E-002
   5.1301992565826193       -6.0868089356790165       -3.0263482069526337     
   1.0924187082613328       -8.9706677733958387       -2.9297190369506532     
   3.0995249919501071       -7.9452305069624307       -1.1927334546482398     
   7.2636243341161899       -5.1873303805813133       -3.2478592771270764     
  0.76621518107308240       -7.5913101996066805      -0.11954108183081132     
   2.8491528784549751       -9.0334399241004455      -0.71710308091796982     
   5.8316563833470108       -2.8867389473307377        6.1291149646992897     
  -2.0911345722582326       -8.1840424498421207       -4.3472175201557084     
   1.5615016374514603       -6.3718096310335195        4.4382597997267874     
   8.0448455493046005       -1.8595392526888999       -2.3907988683334871     
   7.9743169614144831       -4.9713646960158124       -1.3881987085044460     
   3.9676498932761675       -6.4550325423592376        4.0477998978677094     
  -2.3681975779557161       -8.0781215002741114        1.5347195453483005     
   5.4097973606765315       -4.7366956676762095       -2.3515171394959231     
   1.3837880115442394       -5.6408109651776215        7.0943308008256896     
   2.1147249648128925       -8.1673016612124432       -1.2431622122570880     
   4.7473559371220935       -7.4940932171173955       -3.3989439523813676     
   3.4600833026693794       -7.3293030131644770       -4.9556275540060266     
  0.27863829925453892       -7.9518388184480147       -2.9563379015466724     
   2.8158988198370016       -5.8661398551989965       0.73619033797299993     
  -3.1839569087924224       -7.8892216114625624      -0.52316830212642462     
   6.2054215944860287       -5.7542352220848363        2.4119952667928235     
   4.0846320307835429       -7.4726869335254307       -4.1876643700110820     
   1.8898803898223870       -6.4800427477408800        6.6848700255564761     
   1.3305535010973504       -6.6612298676591557       0.98578982538999327     
  0.50660967086320319       -8.4795248372306133        1.2445121765600973     
   7.9776681005693924       -2.7498989054078407        1.1075504636331706     
   7.5823995352192712       -5.5695348101348792      -0.68490569735181583     
   3.4479451286052405       -7.1394354996785321        5.2314422355815440     
   3.8956790694200540       -7.5509110142136269       0.58194956418542143     
   5.5215564886980868       -7.6961470265998644      -0.72780643447586713     
   4.6607182797566660       -5.4622745358380316       -2.4018311172374851     
   3.5361034943792302       -6.5467373913619502       -1.6008631087840128     
  -1.4619772573902794       -8.4854950172753032       -1.0776988626269326     
 -0.10079326276335755       -7.4042553709985892        2.5213335107229846     
  -2.0763508091124034       -7.8177859804124701        2.4963939414146816     
   6.5716018113864347       -3.5402142965357339        4.3035017224922569     
   5.5373543726319383       -5.6812600557789006        3.3393028688738289     
   1.5694129450701162       -7.4723184601394621        1.6979606419486022     
   9.3339068086047821       -1.5314686776013859      -0.81001717493128322     
   4.6389709394632810       -5.0760618007175911        3.6023100053504518     
  -2.8071324993639788       -7.6386945111637576       -3.8691380416983914     
   2.4716704320848519       -7.6718477840535968       -2.9574761275131847     
   3.0602708935621497       -8.4829300918532322       -2.9873192282935923     
  -2.7885193739288190       -8.1540877988314389       0.57273086474176971     
   4.3012478789523527       -7.0462706451854764       -2.2665902652231336     
   5.9184557832568681       -7.1784371339080275       -1.8275747084830409     
   8.2003194227314342       -3.2140421791430818       -3.4756705449759924     
   2.4484939988028578       -8.0849739844423283        1.3669654366206714     
  -1.7345598447726314       -8.2355291035931089        3.3700885869872943     
   4.0219163713291231       -7.8817649490462536        3.4512541371194883     
   7.0375206922956650       -5.5914352755342565        3.0479602370257335     
   3.3599385229318242       -6.0409321130546871       -4.7307857201333459     
   4.2993986702587605       -3.9027595372406125       -4.6389729992643813     
   2.8872456380273368       -7.2746578782608529       -4.0833694203562949     
   1.8798532189360064       -9.2793492984896080      -0.77719967747968133     
 -0.97572097120847245       -7.5862435102374688        3.3195974890615463     
   6.2496099558556324       -4.9870015321655741        3.2255648352459598     
   8.5747651177910793       -2.3499080888236006       -3.1395506227262175     
   2.0025203494306498       -6.3305380383419720       -1.0510249618605407     
   2.6545395102705287       -5.6937221638383617        4.4983553179883007     
   6.6384146256053969       -5.4498165958304625      -0.34449519740457890     
   2.7023558553584444       -7.2015425258926271       -1.7436608973481353     
   2.4600229552185811       -6.7325143819389144       -3.3598002417687129     
 -0.58384708781899042       -9.1077961827919847       -2.6374757060473510     
   4.0834609035628784       -6.5039302999271147      -0.75537711366101867     
   8.8741642006220509       -3.1352932877959234      -0.58240741157272469     
  -1.8296802741698648       -8.2470613019062853       -1.9829541987612171     
  0.12890483425190341       -8.8827744925292347       -3.3022648539799504     
   8.2212542935283324       -4.2808258184297809       -2.0683397294821151     
  0.86479663401609941       -7.6416228423718104       -3.7116067011674758     
   2.9447344276839575       -5.8112140790755618        5.5182103136955227     
   5.8695028215985001       -6.2615688389247177       -4.0697155775259990     
 -0.21898633882014770       -5.7539423920109858       0.38341335851397501     
   3.9349538929577403       -5.0835024802209423        1.9622994224512886     
   3.7862581288321411       -4.6286876622120365        7.3807294202496170     
   1.0629328685486203       -9.3843689107314994        1.0265586159797480     
[...]
POINT_DATA  500
SCALARS radius float
LOOKUP_TABLE default
  0.50000000000000000     
  0.50000000000000000     
  0.50000000000000000     
  0.50000000000000000     
  0.50000000000000000     
  0.50000000000000000     
  0.50000000000000000     
  0.50000000000000000     
  0.50000000000000000     
  0.50000000000000000     
  0.50000000000000000     
  0.50000000000000000     
  0.50000000000000000     
  0.50000000000000000     
  0.50000000000000000     
  0.50000000000000000     
  0.50000000000000000     
  0.50000000000000000     
  0.50000000000000000     
  0.50000000000000000     
  0.50000000000000000     
  0.50000000000000000     
  0.50000000000000000     
  0.50000000000000000     
  0.50000000000000000     
  0.50000000000000000     
  0.50000000000000000     
  0.50000000000000000     
  0.50000000000000000     
  0.50000000000000000     
  0.50000000000000000     
  0.50000000000000000     
  0.50000000000000000     
  0.50000000000000000     
  0.50000000000000000     
  0.50000000000000000     
  0.50000000000000000     
  0.50000000000000000     
  0.50000000000000000     
  0.50000000000000000     
  0.50000000000000000     
  0.50000000000000000     
  0.50000000000000000     
  0.50000000000000000     
  0.50000000000000000     
  0.50000000000000000     
  0.50000000000000000     
  0.50000000000000000     
  0.50000000000000000     
  0.50000000000000000     
  0.50000000000000000     
  0.50000000000000000     
  0.50000000000000000     
  0.50000000000000000     
  0.50000000000000000     
  0.50000000000000000     
  0.50000000000000000     
  0.50000000000000000     
  0.50000000000000000     
  0.50000000000000000     
  0.50000000000000000     
  0.50000000000000000     
  0.50000000000000000     
  0.50000000000000000     
  0.50000000000000000     
  0.50000000000000000     
  0.50000000000000000     
  0.50000000000000000     
  0.50000000000000000     
  0.50000000000000000     
  0.50000000000000000     
  0.50000000000000000     
  0.50000000000000000     
  0.50000000000000000     
  0.50000000000000000     
  0.50000000000000000     
  0.50000000000000000     
  0.50000000000000000     
  0.50000000000000000     
  0.50000000000000000     
  0.50000000000000000     
  0.50000000000000000     
  0.50000000000000000     
  0.50000000000000000     
  0.50000000000000000     
  0.50000000000000000     
  0.50000000000000000     
  0.50000000000000000     
  0.50000000000000000     
  0.50000000000000000     
  0.50000000000000000     
  0.50000000000000000     
  0.50000000000000000     
  0.50000000000000000     
  0.50000000000000000     
  0.50000000000000000     
  0.50000000000000000     
  0.50000000000000000     
  0.50000000000000000     
  0.50000000000000000     
  0.50000000000000000     
  0.50000000000000000     
  0.50000000000000000     
  0.50000000000000000     
  0.50000000000000000     
  0.50000000000000000     
  0.50000000000000000     
  0.50000000000000000     
  0.50000000000000000     
  0.50000000000000000     
  0.50000000000000000     
  0.50000000000000000     
  0.50000000000000000     
  0.50000000000000000     
  0.50000000000000000     
  0.50000000000000000     
  0.50000000000000000     
  0.50000000000000000     
  0.50000000000000000     
  0.50000000000000000     
  0.50000000000000000     
  0.50000000000000000     
  0.50000000000000000     
  0.50000000000000000     
  0.50000000000000000     
  0.50000000000000000     
  0.50000000000000000     
  0.50000000000000000     
  0.50000000000000000     
  0.50000000000000000     
  0.50000000000000000     
  0.50000000000000000     
  0.50000000000000000     
  0.50000000000000000     
  0.50000000000000000     
  0.50000000000000000     
  0.50000000000000000     
  0.50000000000000000     
  0.50000000000000000     
  0.50000000000000000     
  0.50000000000000000     
  0.50000000000000000     
  0.50000000000000000     
  0.50000000000000000     
  0.50000000000000000     
  0.50000000000000000     
  0.50000000000000000     
  0.50000000000000000     
  0.50000000000000000     
  0.50000000000000000     
  0.50000000000000000     
  0.50000000000000000     
  0.50000000000000000     
  0.50000000000000000     
  0.50000000000000000     
  0.50000000000000000     
  0.50000000000000000     
  0.50000000000000000     
  0.50000000000000000     
  0.50000000000000000     
  0.50000000000000000     
  0.50000000000000000     
  0.50000000000000000     
  0.50000000000000000     
  0.50000000000000000     
  0.50000000000000000     
  0.50000000000000000     
  0.50000000000000000     
  0.50000000000000000     
  0.50000000000000000     
  0.50000000000000000     
  0.50000000000000000     
  0.50000000000000000     
  0.50000000000000000     
  0.50000000000000000     
  0.50000000000000000     
  0.50000000000000000     
  0.50000000000000000     
  0.50000000000000000     
  0.50000000000000000     
  0.50000000000000000     
  0.50000000000000000     
  0.50000000000000000     
  0.50000000000000000     
  0.50000000000000000     
  0.50000000000000000     
  0.50000000000000000     
  0.50000000000000000     
  0.50000000000000000     
  0.50000000000000000     
  0.50000000000000000     
  0.50000000000000000     
  0.50000000000000000     
  0.50000000000000000     
  0.50000000000000000     
  0.50000000000000000     
  0.50000000000000000     
  0.50000000000000000     
  0.50000000000000000     
  0.50000000000000000     
  0.50000000000000000     
  0.50000000000000000     
  0.50000000000000000     
  0.50000000000000000     
  0.50000000000000000     
  0.50000000000000000     
  0.50000000000000000     
  0.50000000000000000     
  0.50000000000000000     
  0.50000000000000000     
  0.50000000000000000     
  0.50000000000000000     
  0.50000000000000000     
  0.50000000000000000     
  0.50000000000000000     
  0.50000000000000000     
  0.50000000000000000     
  0.50000000000000000     
  0.50000000000000000     
  0.50000000000000000     
  0.50000000000000000     
  0.50000000000000000     
  0.50000000000000000     
  0.50000000000000000     
  0.50000000000000000     
  0.50000000000000000     
  0.50000000000000000     
  0.50000000000000000     
  0.50000000000000000     
  0.50000000000000000     
  0.50000000000000000     
  0.50000000000000000     
  0.50000000000000000     
  0.50000000000000000     
  0.50000000000000000     
  0.50000000000000000     
  0.50000000000000000     
  0.50000000000000000     
  0.50000000000000000     
  0.50000000000000000     
  0.50000000000000000     
  0.50000000000000000     
  0.50000000000000000     
  0.50000000000000000     
  0.50000000000000000     
  0.50000000000000000     
  0.50000000000000000     
  0.50000000000000000     
  0.50000000000000000     
  0.50000000000000000     
  0.50000000000000000     
  0.50000000000000000     
  0.50000000000000000     
  0.50000000000000000     
  0.50000000000000000     
  0.50000000000000000     
  0.50000000000000000     
  0.50000000000000000     
  0.50000000000000000     
  0.50000000000000000     
  0.50000000000000000     
  0.50000000000000000     
  0.50000000000000000     
  0.50000000000000000     
  0.50000000000000000     
  0.50000000000000000     
  0.50000000000000000     
  0.50000000000000000     
  0.50000000000000000     
  0.50000000000000000     
  0.50000000000000000     
  0.50000000000000000     
  0.50000000000000000     
  0.50000000000000000     
  0.50000000000000000     
  0.50000000000000000     
  0.50000000000000000     
  0.50000000000000000     
  0.50000000000000000     
  0.50000000000000000     
  0.50000000000000000     
  0.50000000000000000     
  0.50000000000000000     
  0.50000000000000000     
  0.50000000000000000     
  0.50000000000000000     
  0.50000000000000000     
  0.50000000000000000     
  0.50000000000000000     
  0.50000000000000000     
  0.50000000000000000     
  0.50000000000000000     
  0.50000000000000000     
  0.50000000000000000     
  0.50000000000000000     
  0.50000000000000000     
  0.50000000000000000     
  0.50000000000000000     
  0.50000000000000000     
  0.50000000000000000     
  0.50000000000000000     
  0.50000000000000000     
  0.50000000000000000     
  0.50000000000000000     
  0.50000000000000000     
  0.50000000000000000     
  0.50000000000000000     
  0.50000000000000000     
  0.50000000000000000     
  0.50000000000000000     
  0.50000000000000000     
  0.50000000000000000     
  0.50000000000000000     
  0.50000000000000000     
  0.50000000000000000     
  0.50000000000000000     
  0.50000000000000000     
  0.50000000000000000     
  0.50000000000000000     
  0.50000000000000000     
  0.50000000000000000     
  0.50000000000000000     
  0.50000000000000000     
  0.50000000000000000     
  0.50000000000000000     
  0.50000000000000000     
  0.50000000000000000     
  0.50000000000000000     
  0.50000000000000000     
  0.50000000000000000     
  0.50000000000000000     
  0.50000000000000000     
  0.50000000000000000     
  0.50000000000000000     
  0.50000000000000000     
  0.50000000000000000     
  0.50000000000000000     
  0.50000000000000000     
  0.50000000000000000     
  0.50000000000000000     
  0.50000000000000000     
  0.50000000000000000     
  0.50000000000000000     
  0.50000000000000000     
  0.50000000000000000     
  0.50000000000000000     
  0.50000000000000000     
  0.50000000000000000     
  0.50000000000000000     
  0.50000000000000000     
  0.50000000000000000     
  0.50000000000000000     
  0.50000000000000000     
  0.50000000000000000     
  0.50000000000000000     
  0.50000000000000000     
  0.50000000000000000     
  0.50000000000000000     
  0.50000000000000000     
  0.50000000000000000     
  0.50000000000000000     
  0.50000000000000000     
  0.50000000000000000     
  0.50000000000000000     
  0.50000000000000000     
  0.50000000000000000     
  0.50000000000000000     
  0.50000000000000000     
  0.50000000000000000     
  0.50000000000000000     
  0.50000000000000000     
  0.50000000000000000     
  0.50000000000000000     
  0.50000000000000000     
  0.50000000000000000     
  0.50000000000000000     
  0.50000000000000000     
  0.50000000000000000     
  0.50000000000000000     
  0.50000000000000000     
  0.50000000000000000     
  0.50000000000000000     
  0.50000000000000000     
  0.50000000000000000     
  0.50000000000000000     
  0.50000000000000000     
  0.50000000000000000     
  0.50000000000000000     
  0.50000000000000000     
  0.50000000000000000     
  0.50000000000000000     
  0.50000000000000000     
  0.50000000000000000     
  0.50000000000000000     
  0.50000000000000000     
  0.50000000000000000     
  0.50000000000000000     
  0.50000000000000000     
  0.50000000000000000     
  0.50000000000000000     
  0.50000000000000000     
  0.50000000000000000     
  0.50000000000000000     
  0.50000000000000000     
  0.50000000000000000     
  0.50000000000000000     
  0.50000000000000000     
  0.50000000000000000     
  0.50000000000000000     
  0.50000000000000000     
  0.50000000000000000     
  0.50000000000000000     
  0.50000000000000000     
  0.50000000000000000     
  0.50000000000000000     
  0.50000000000000000     
  0.50000000000000000     
  0.50000000000000000     
  0.50000000000000000     
  0.50000000000000000     
  0.50000000000000000     
  0.50000000000000000     
  0.50000000000000000     
  0.50000000000000000     
  0.50000000000000000     
  0.50000000000000000     
  0.50000000000000000     
  0.50000000000000000     
  0.50000000000000000     
  0.50000000000000000     
  0.50000000000000000     
  0.50000000000000000     
  0.50000000000000000     
  0.50000000000000000     
  0.50000000000000000     
  0.50000000000000000     
  0.50000000000000000     
  0.50000000000000000     
  0.50000000000000000     
  0.50000000000000000     
  0.50000000000000000     
  0.50000000000000000     
  0.50000000000000000     
  0.50000000000000000     
  0.50000000000000000     
  0.50000000000000000     
  0.50000000000000000     
  0.50000000000000000     
  0.50000000000000000     
  0.50000000000000000     
  0.50000000000000000     
  0.50000000000000000     
  0.50000000000000000     
  0.50000000000000000     
  0.50000000000000000     
  0.50000000000000000     
  0.50000000000000000     
  0.50000000000000000     
  0.50000000000000000     
  0.50000000000000000     
  0.50000000000000000     
  0.50000000000000000     
  0.50000000000000000     
  0.50000000000000000     
  0.50000000000000000     
  0.50000000000000000     
  0.50000000000000000     
  0.50000000000000000     
  0.50000000000000000     
  0.50000000000000000     
  0.50000000000000000     
  0.50000000000000000     
  0.50000000000000000     
  0.50000000000000000     
  0.50000000000000000     
  0.50000000000000000     
  0.50000000000000000     
  0.50000000000000000     
  0.50000000000000000     
  0.50000000000000000     
  0.50000000000000000     
  0.50000000000000000     
  0.50000000000000000     
  0.50000000000000000     
  0.50000000000000000     
  0.50000000000000000     
  0.50000000000000000     
  0.50000000000000000     
  0.50000000000000000     
  0.50000000000000000     
  0.50000000000000000     
  0.50000000000000000     
  0.50000000000000000     
  0.50000000000000000     
  0.50000000000000000     
  0.50000000000000000     
  0.50000000000000000     
  0.50000000000000000     
  0.50000000000000000     
  0.50000000000000000     
